
                                 *****************
                                 * O   R   C   A *
                                 *****************

           --- An Ab Initio, DFT and Semiempirical electronic structure package ---

                  #######################################################
                  #                        -***-                        #
                  #          Department of theory and spectroscopy      #
                  #               Directorship: Frank Neese             #
                  #        Max Planck Institute fuer Kohlenforschung    #
                  #                Kaiser Wilhelm Platz 1               #
                  #                 D-45470 Muelheim/Ruhr               #
                  #                      Germany                        #
                  #                                                     #
                  #                  All rights reserved                #
                  #                        -***-                        #
                  #######################################################


                         Program Version 4.2.0 -  RELEASE  -


 With contributions from (in alphabetic order):
   Daniel Aravena         : Magnetic Suceptibility
   Michael Atanasov       : Ab Initio Ligand Field Theory (pilot matlab implementation)
   Alexander A. Auer      : GIAO ZORA, VPT2
   Ute Becker             : Parallelization
   Giovanni Bistoni       : ED, misc. LED, open-shell LED, HFLED
   Martin Brehm           : Molecular dynamics
   Dmytro Bykov           : SCF Hessian
   Vijay G. Chilkuri      : MRCI spin determinant printing, contributions to CSF-ICE
   Dipayan Datta          : RHF DLPNO-CCSD density
   Achintya Kumar Dutta   : EOM-CC, STEOM-CC
   Dmitry Ganyushin       : Spin-Orbit,Spin-Spin,Magnetic field MRCI
   Miquel Garcia          : C-PCM Hessian, Gaussian charge scheme
   Yang Guo               : DLPNO-NEVPT2, CIM, IAO-localization
   Andreas Hansen         : Spin unrestricted coupled pair/coupled cluster methods
   Benjamin Helmich-Paris : CASSCF linear response (MC-RPA)
   Lee Huntington         : MR-EOM, pCC
   Robert Izsak           : Overlap fitted RIJCOSX, COSX-SCS-MP3, EOM
   Christian Kollmar      : KDIIS, OOCD, Brueckner-CCSD(T), CCSD density
   Simone Kossmann        : Meta GGA functionals, TD-DFT gradient, OOMP2, MP2 Hessian
   Martin Krupicka        : AUTO-CI
   Lucas Lang             : DCDCAS
   Dagmar Lenk            : GEPOL surface, SMD
   Dimitrios Liakos       : Extrapolation schemes; Compound Job, initial MDCI parallelization
   Dimitrios Manganas     : Further ROCIS development; embedding schemes
   Dimitrios Pantazis     : SARC Basis sets
   Taras Petrenko         : DFT Hessian,TD-DFT gradient, ASA, ECA, R-Raman, ABS, FL, XAS/XES, NRVS
   Peter Pinski           : DLPNO-MP2, DLPNO-MP2 Gradient
   Christoph Reimann      : Effective Core Potentials
   Marius Retegan         : Local ZFS, SOC
   Christoph Riplinger    : Optimizer, TS searches, QM/MM, DLPNO-CCSD(T), (RO)-DLPNO pert. Triples
   Tobias Risthaus        : Range-separated hybrids, TD-DFT gradient, RPA, STAB
   Michael Roemelt        : Original ROCIS implementation
   Masaaki Saitow         : Open-shell DLPNO-CCSD energy and density
   Barbara Sandhoefer     : DKH picture change effects
   Avijit Sen             : IP-ROCIS
   Kantharuban Sivalingam : CASSCF convergence, NEVPT2, FIC-MRCI
   Bernardo de Souza      : ESD, SOC TD-DFT
   Georgi Stoychev        : AutoAux, RI-MP2 NMR
   Willem Van den Heuvel  : Paramagnetic NMR
   Boris Wezisla          : Elementary symmetry handling
   Frank Wennmohs         : Technical directorship


 We gratefully acknowledge several colleagues who have allowed us to
 interface, adapt or use parts of their codes:
   Stefan Grimme, W. Hujo, H. Kruse,             : VdW corrections, initial TS optimization,
                  C. Bannwarth                     DFT functionals, gCP, sTDA/sTD-DF
   Ed Valeev, F. Pavosevic, A. Kumar             : LibInt (2-el integral package), F12 methods
   Garnet Chan, S. Sharma, J. Yang, R. Olivares  : DMRG
   Ulf Ekstrom                                   : XCFun DFT Library
   Mihaly Kallay                                 : mrcc  (arbitrary order and MRCC methods)
   Andreas Klamt, Michael Diedenhofen            : otool_cosmo (COSMO solvation model)
   Jiri Pittner, Ondrej Demel                    : Mk-CCSD
   Frank Weinhold                                : gennbo (NPA and NBO analysis)
   Christopher J. Cramer and Donald G. Truhlar   : smd solvation model
   Lars Goerigk                                  : TD-DFT with DH, B97 family of functionals
   V. Asgeirsson, H. Jonsson                     : NEB implementation
   FAccTs GmbH                                   : IRC, NEB, NEB-TS, Multilevel, MM, QM/MM, CI optimization
   S Lehtola, MJT Oliveira, MAL Marques          : LibXC Library


 Your calculation uses the libint2 library for the computation of 2-el integrals
 For citations please refer to: http://libint.valeyev.net

 Your ORCA version has been built with support for libXC version: 4.2.3
 For citations please refer to: https://tddft.org/programs/libxc/

 This ORCA versions uses:
   CBLAS   interface :  Fast vector & matrix operations
   LAPACKE interface :  Fast linear algebra routines
   SCALAPACK package :  Parallel linear algebra routines


----- Orbital basis set information -----
Your calculation utilizes the basis: def2-TZVP
   F. Weigend and R. Ahlrichs, Phys. Chem. Chem. Phys. 7, 3297 (2005).

================================================================================
                                        WARNINGS
                       Please study these warnings very carefully!
================================================================================


WARNING: The frozen-core approximation for MP2-gradient calculations is turned on by default.

INFO   : the flag for use of LIBINT has been found!

================================================================================
                                       INPUT FILE
================================================================================
NAME = 12mecn.remya.etal.2.mol6,7,11-orca.engrad-mp2.def2tzvp.frozencore.inp
|  1> # 12mecn.remya.etal.2.mol6,7,11
|  2> ! MP2 def2-TZVP EnGrad TightSCF
|  3> 
|  4> %pal
|  5>     nprocs 6
|  6> end
|  7> 
|  8> %maxcore 8000
|  9> 
| 10> %scf
| 11>     ConvForced true
| 12> end
| 13> 
| 14> *xyz 0 1
| 15> C   5.300864000  -2.920090000   1.401103000
| 16> H   5.986071000  -2.139770000   1.737487000
| 17> H   5.636642000  -3.888750000   1.778233000
| 18> H   4.307359000  -2.697240000   1.799307000
| 19> C   5.234791000  -2.933140000  -0.043290000
| 20> N   5.170868000  -2.941760000  -1.207750000
| 21> C   1.502241000   0.651296000   1.710523000
| 22> H   1.309219000   1.637164000   2.143202000
| 23> H   2.493408000   0.297996000   2.009069000
| 24> H   0.746597000  -0.059850000   2.055508000
| 25> C   1.447974000   0.738517000   0.269805000
| 26> N   1.405612000   0.808047000  -0.894380000
| 27> C   4.214163000   3.378139000   1.593627000
| 28> H   3.242643000   3.657109000   2.012358000
| 29> H   4.969258000   4.086643000   1.941290000
| 30> H   4.482966000   2.372549000   1.931698000
| 31> C   4.130759000   3.388436000   0.150192000
| 32> N   4.050180000   3.381449000  -1.013420000
| 33> *
| 34> 
| 35>                          ****END OF INPUT****
================================================================================

                     *******************************
                     * Energy+Gradient Calculation *
                     *******************************

---------------------------------
CARTESIAN COORDINATES (ANGSTROEM)
---------------------------------
  C      5.300864   -2.920090    1.401103
  H      5.986071   -2.139770    1.737487
  H      5.636642   -3.888750    1.778233
  H      4.307359   -2.697240    1.799307
  C      5.234791   -2.933140   -0.043290
  N      5.170868   -2.941760   -1.207750
  C      1.502241    0.651296    1.710523
  H      1.309219    1.637164    2.143202
  H      2.493408    0.297996    2.009069
  H      0.746597   -0.059850    2.055508
  C      1.447974    0.738517    0.269805
  N      1.405612    0.808047   -0.894380
  C      4.214163    3.378139    1.593627
  H      3.242643    3.657109    2.012358
  H      4.969258    4.086643    1.941290
  H      4.482966    2.372549    1.931698
  C      4.130759    3.388436    0.150192
  N      4.050180    3.381449   -1.013420

----------------------------
CARTESIAN COORDINATES (A.U.)
----------------------------
  NO LB      ZA    FRAG     MASS         X           Y           Z
   0 C     6.0000    0    12.011   10.017181   -5.518170    2.647701
   1 H     1.0000    0     1.008   11.312035   -4.043579    3.283375
   2 H     1.0000    0     1.008   10.651710   -7.348673    3.360373
   3 H     1.0000    0     1.008    8.139729   -5.097045    3.400197
   4 C     6.0000    0    12.011    9.892321   -5.542831   -0.081806
   5 N     7.0000    0    14.007    9.771524   -5.559121   -2.282317
   6 C     6.0000    0    12.011    2.838824    1.230771    3.232420
   7 H     1.0000    0     1.008    2.474065    3.093792    4.050065
   8 H     1.0000    0     1.008    4.711858    0.563131    3.796590
   9 H     1.0000    0     1.008    1.410864   -0.113100    3.884347
  10 C     6.0000    0    12.011    2.736274    1.395595    0.509858
  11 N     7.0000    0    14.007    2.656222    1.526988   -1.690133
  12 C     6.0000    0    12.011    7.963614    6.383758    3.011519
  13 H     1.0000    0     1.008    6.127707    6.910934    3.802806
  14 H     1.0000    0     1.008    9.390537    7.722636    3.668506
  15 H     1.0000    0     1.008    8.471578    4.483468    3.650380
  16 C     6.0000    0    12.011    7.806003    6.403216    0.283822
  17 N     7.0000    0    14.007    7.653731    6.390013   -1.915086

--------------------------------
INTERNAL COORDINATES (ANGSTROEM)
--------------------------------
 C      0   0   0     0.000000000000     0.00000000     0.00000000
 H      1   0   0     1.091586978076     0.00000000     0.00000000
 H      1   2   0     1.092371776358   109.54533538     0.00000000
 H      1   2   3     1.093288952263   108.20839361   119.35754574
 C      1   2   3     1.445962337780   110.05738052   238.26291057
 N      5   1   2     1.166245062553   179.46874677   239.41288738
 C      4   1   2     4.369126106657   137.07561007    55.39514671
 H      7   4   1     1.093802689222   142.75367980   283.28831940
 H      7   4   1     1.093783628514    33.39460527   298.44498360
 H      7   4   1     1.093499491667    86.49292593   164.52142988
 C      7   4   1     1.444375562537    95.20227370    55.59270233
 N     11   7   4     1.167028566132   179.91347457   342.46016735
 C      8   7   4     3.430994939429   104.15695698    53.85631117
 H     13   8   7     1.094079988694    46.86248470   175.27431194
 H     13   8   7     1.092252689907   149.71039902   219.49771784
 H     13   8   7     1.094421446222    72.07539018   316.93788661
 C     13   8   7     1.445879266969    96.58532648    65.04752338
 N     17  13   8     1.166419598581   179.00370785   341.72149780

---------------------------
INTERNAL COORDINATES (A.U.)
---------------------------
 C      0   0   0     0.000000000000     0.00000000     0.00000000
 H      1   0   0     2.062800439918     0.00000000     0.00000000
 H      1   2   0     2.064283493742   109.54533538     0.00000000
 H      1   2   3     2.066016705019   108.20839361   119.35754574
 C      1   2   3     2.732472818369   110.05738052   238.26291057
 N      5   1   2     2.203883773263   179.46874677   239.41288738
 C      4   1   2     8.256451786148   137.07561007    55.39514671
 H      7   4   1     2.066987527176   142.75367980   283.28831940
 H      7   4   1     2.066951507658    33.39460527   298.44498360
 H      7   4   1     2.066414566834    86.49292593   164.52142988
 C      7   4   1     2.729474247723    95.20227370    55.59270233
 N     11   7   4     2.205364380453   179.91347457   342.46016735
 C      8   7   4     6.483640802390   104.15695698    53.85631117
 H     13   8   7     2.067511547236    46.86248470   175.27431194
 H     13   8   7     2.064058452964   149.71039902   219.49771784
 H     13   8   7     2.068156808449    72.07539018   316.93788661
 C     13   8   7     2.732315837286    96.58532648    65.04752338
 N     17  13   8     2.204213598557   179.00370785   341.72149780

---------------------
BASIS SET INFORMATION
---------------------
There are 3 groups of distinct atoms

 Group   1 Type C   : 11s6p2d1f contracted to 5s3p2d1f pattern {62111/411/11/1}
 Group   2 Type H   : 5s1p contracted to 3s1p pattern {311/1}
 Group   3 Type N   : 11s6p2d1f contracted to 5s3p2d1f pattern {62111/411/11/1}

Atom   0C    basis set group =>   1
Atom   1H    basis set group =>   2
Atom   2H    basis set group =>   2
Atom   3H    basis set group =>   2
Atom   4C    basis set group =>   1
Atom   5N    basis set group =>   3
Atom   6C    basis set group =>   1
Atom   7H    basis set group =>   2
Atom   8H    basis set group =>   2
Atom   9H    basis set group =>   2
Atom  10C    basis set group =>   1
Atom  11N    basis set group =>   3
Atom  12C    basis set group =>   1
Atom  13H    basis set group =>   2
Atom  14H    basis set group =>   2
Atom  15H    basis set group =>   2
Atom  16C    basis set group =>   1
Atom  17N    basis set group =>   3


           ************************************************************
           *        Program running with 6 parallel MPI-processes     *
           *              working on a common directory               *
           ************************************************************
------------------------------------------------------------------------------
                           ORCA GTO INTEGRAL CALCULATION
------------------------------------------------------------------------------

                         BASIS SET STATISTICS AND STARTUP INFO

 # of primitive gaussian shells          ...  234
 # of primitive gaussian functions       ...  486
 # of contracted shells                  ...  135
 # of contracted basis functions         ...  333
 Highest angular momentum                ...    3
 Maximum contraction depth               ...    6
 Integral package used                   ... LIBINT
 Integral threshhold            Thresh   ...  2.500e-11
 Primitive cut-off              TCut     ...  2.500e-12


------------------------------ INTEGRAL EVALUATION ----------------------------


 * One electron integrals 
 Pre-screening matrix                    ... done
 Shell pair data                         ... done (   0.002 sec)



           ************************************************************
           *        Program running with 6 parallel MPI-processes     *
           *              working on a common directory               *
           ************************************************************
-------------------------------------------------------------------------------
                                 ORCA SCF
-------------------------------------------------------------------------------

------------
SCF SETTINGS
------------
Hamiltonian:
 Ab initio Hamiltonian  Method          .... Hartree-Fock(GTOs)


General Settings:
 Integral files         IntName         .... 12mecn.remya.etal.2.mol6,7,11-orca.engrad-mp2.def2tzvp.frozencore
 Hartree-Fock type      HFTyp           .... RHF
 Total Charge           Charge          ....    0
 Multiplicity           Mult            ....    1
 Number of Electrons    NEL             ....   66
 Basis Dimension        Dim             ....  333
 Nuclear Repulsion      ENuc            ....    323.5061720829 Eh

Convergence Acceleration:
 DIIS                   CNVDIIS         .... on
   Start iteration      DIISMaxIt       ....    12
   Startup error        DIISStart       ....  0.200000
   # of expansion vecs  DIISMaxEq       ....     5
   Bias factor          DIISBfac        ....   1.050
   Max. coefficient     DIISMaxC        ....  10.000
 Newton-Raphson         CNVNR           .... off
 SOSCF                  CNVSOSCF        .... on
   Start iteration      SOSCFMaxIt      ....   150
   Startup grad/error   SOSCFStart      ....  0.003300
 Level Shifting         CNVShift        .... on
   Level shift para.    LevelShift      ....    0.2500
   Turn off err/grad.   ShiftErr        ....    0.0010
 Zerner damping         CNVZerner       .... off
 Static damping         CNVDamp         .... on
   Fraction old density DampFac         ....    0.7000
   Max. Damping (<1)    DampMax         ....    0.9800
   Min. Damping (>=0)   DampMin         ....    0.0000
   Turn off err/grad.   DampErr         ....    0.1000
 Fernandez-Rico         CNVRico         .... off

SCF Procedure:
 Maximum # iterations   MaxIter         ....   125
 SCF integral mode      SCFMode         .... Direct
   Integral package                     .... LIBINT
 Reset frequency        DirectResetFreq ....    20
 Integral Threshold     Thresh          ....  2.500e-11 Eh
 Primitive CutOff       TCut            ....  2.500e-12 Eh

Convergence Tolerance:
 Convergence Check Mode ConvCheckMode   .... Total+1el-Energy
 Convergence forced     ConvForced      .... 1
 Energy Change          TolE            ....  1.000e-08 Eh
 1-El. energy change                    ....  1.000e-05 Eh
 Orbital Gradient       TolG            ....  1.000e-05
 Orbital Rotation angle TolX            ....  1.000e-05
 DIIS Error             TolErr          ....  5.000e-07


Diagonalization of the overlap matrix:
Smallest eigenvalue                        ... 1.350e-04
Time for diagonalization                   ...    0.023 sec
Threshold for overlap eigenvalues          ... 1.000e-08
Number of eigenvalues below threshold      ... 0
Time for construction of square roots      ...    0.008 sec
Total time needed                          ...    0.031 sec

-------------------
DFT GRID GENERATION
-------------------

General Integration Accuracy     IntAcc      ...  4.340
Radial Grid Type                 RadialGrid  ... Gauss-Chebyshev
Angular Grid (max. acc.)         AngularGrid ... Lebedev-110
Angular grid pruning method      GridPruning ... 3 (G Style)
Weight generation scheme         WeightScheme... Becke
Basis function cutoff            BFCut       ...    1.0000e-11
Integration weight cutoff        WCut        ...    1.0000e-14
Grids for H and He will be reduced by one unit

# of grid points (after initial pruning)     ...  22188 (   0.0 sec)
# of grid points (after weights+screening)   ...  20878 (   0.0 sec)
nearest neighbour list constructed           ...    0.0 sec
Grid point re-assignment to atoms done       ...    0.0 sec
Grid point division into batches done        ...    0.0 sec
Reduced shell lists constructed in    0.0 sec

Total number of grid points                  ...    20878
Total number of batches                      ...      336
Average number of points per batch           ...       62
Average number of grid points per atom       ...     1160
Average number of shells per batch           ...    58.82 (43.57%)
Average number of basis functions per batch  ...   133.95 (40.22%)
Average number of large shells per batch     ...    40.70 (69.19%)
Average number of large basis fcns per batch ...    94.11 (70.26%)
Maximum spatial batch extension              ...  20.98, 14.04, 19.63 au
Average spatial batch extension              ...   0.73,  0.65,  0.79 au

Time for grid setup =    0.091 sec

------------------------------
INITIAL GUESS: MODEL POTENTIAL
------------------------------
Loading Hartree-Fock densities                     ... done
Calculating cut-offs                               ... done
Setting up the integral package                    ... done
Initializing the effective Hamiltonian             ... done
Starting the Coulomb interaction                   ... done (   0.0 sec)
Reading the grid                                   ... done
Mapping shells                                     ... done
Starting the XC term evaluation                    ... done (   0.0 sec)
Transforming the Hamiltonian                       ... done (   0.0 sec)
Diagonalizing the Hamiltonian                      ... done (   0.0 sec)
Back transforming the eigenvectors                 ... done (   0.0 sec)
Now organizing SCF variables                       ... done
                      ------------------
                      INITIAL GUESS DONE (   0.3 sec)
                      ------------------
--------------
SCF ITERATIONS
--------------
ITER       Energy         Delta-E        Max-DP      RMS-DP      [F,P]     Damp
               ***  Starting incremental Fock matrix formation  ***
  0   -395.3973736652   0.000000000000 0.03878994  0.00089046  0.2920868 0.7000
  1   -395.5841847337  -0.186811068444 0.02767712  0.00070560  0.1882192 0.7000
                               ***Turning on DIIS***
  2   -395.6920232634  -0.107838529688 0.01631215  0.00045525  0.1424987 0.7000
  3   -396.6266786518  -0.934655388465 0.00997243  0.00029154  0.1058602 0.7000
  4   -396.5935318154   0.033146836477 0.02564699  0.00071877  0.0745459 0.0000
  5   -395.9435239750   0.650007840308 0.00679050  0.00013146  0.0066141 0.0000
                      *** Initiating the SOSCF procedure ***
                           *** Shutting down DIIS ***
                      *** Re-Reading the Fockian *** 
                      *** Removing any level shift *** 
ITER      Energy       Delta-E        Grad      Rot      Max-DP    RMS-DP
  6   -395.92577531   0.0177486621  0.001168  0.001168  0.004526  0.000081
               *** Restarting incremental Fock matrix formation ***
  7   -395.91368201   0.0120933039  0.000447  0.000695  0.003164  0.000057
  8   -395.91370051  -0.0000184967  0.000271  0.000475  0.002580  0.000047
  9   -395.91370403  -0.0000035243  0.000128  0.000156  0.000853  0.000015
 10   -395.91370493  -0.0000009019  0.000012  0.000013  0.000076  0.000001
 11   -395.91370494  -0.0000000088  0.000006  0.000009  0.000023  0.000000
 12   -395.91370494  -0.0000000010  0.000003  0.000005  0.000010  0.000000
                  ***Gradient check signals convergence***
              ***Rediagonalizing the Fockian in SOSCF/NRSCF***

               *****************************************************
               *                     SUCCESS                       *
               *           SCF CONVERGED AFTER  13 CYCLES          *
               *****************************************************


----------------
TOTAL SCF ENERGY
----------------

Total Energy       :         -395.91370494 Eh          -10773.35962 eV

Components:
Nuclear Repulsion  :          323.50617208 Eh            8803.05048 eV
Electronic Energy  :         -719.41987703 Eh          -19576.41010 eV
One Electron Energy:        -1175.72586005 Eh          -31993.12715 eV
Two Electron Energy:          456.30598303 Eh           12416.71705 eV

Virial components:
Potential Energy   :         -791.04830108 Eh          -21525.51861 eV
Kinetic Energy     :          395.13459614 Eh           10752.15899 eV
Virial Ratio       :            2.00197176


---------------
SCF CONVERGENCE
---------------

  Last Energy change         ...   -1.2321e-09  Tolerance :   1.0000e-08
  Last MAX-Density change    ...    5.0161e-06  Tolerance :   1.0000e-07
  Last RMS-Density change    ...    8.4672e-08  Tolerance :   5.0000e-09
  Last Orbital Gradient      ...    1.6345e-06  Tolerance :   1.0000e-05
  Last Orbital Rotation      ...    1.4950e-06  Tolerance :   1.0000e-05

             **** THE GBW FILE WAS UPDATED (12mecn.remya.etal.2.mol6,7,11-orca.engrad-mp2.def2tzvp.frozencore.gbw) ****
             **** DENSITY FILE WAS UPDATED (12mecn.remya.etal.2.mol6,7,11-orca.engrad-mp2.def2tzvp.frozencore.scfp) ****
             **** ENERGY FILE WAS UPDATED (12mecn.remya.etal.2.mol6,7,11-orca.engrad-mp2.def2tzvp.frozencore.en.tmp) ****
             **** THE GBW FILE WAS UPDATED (12mecn.remya.etal.2.mol6,7,11-orca.engrad-mp2.def2tzvp.frozencore.gbw) ****
             **** DENSITY FILE WAS UPDATED (12mecn.remya.etal.2.mol6,7,11-orca.engrad-mp2.def2tzvp.frozencore.scfp) ****
----------------
ORBITAL ENERGIES
----------------

  NO   OCC          E(Eh)            E(eV) 
   0   2.0000     -15.574002      -423.7902 
   1   2.0000     -15.572761      -423.7564 
   2   2.0000     -15.572033      -423.7366 
   3   2.0000     -11.293853      -307.3214 
   4   2.0000     -11.292027      -307.2717 
   5   2.0000     -11.290160      -307.2209 
   6   2.0000     -11.279624      -306.9342 
   7   2.0000     -11.276606      -306.8521 
   8   2.0000     -11.276407      -306.8466 
   9   2.0000      -1.214777       -33.0558 
  10   2.0000      -1.212952       -33.0061 
  11   2.0000      -1.211581       -32.9688 
  12   2.0000      -1.051426       -28.6108 
  13   2.0000      -1.047953       -28.5163 
  14   2.0000      -1.047756       -28.5109 
  15   2.0000      -0.706001       -19.2113 
  16   2.0000      -0.704953       -19.1828 
  17   2.0000      -0.703126       -19.1330 
  18   2.0000      -0.645527       -17.5657 
  19   2.0000      -0.643653       -17.5147 
  20   2.0000      -0.637695       -17.3526 
  21   2.0000      -0.636523       -17.3207 
  22   2.0000      -0.635031       -17.2801 
  23   2.0000      -0.631850       -17.1935 
  24   2.0000      -0.555386       -15.1128 
  25   2.0000      -0.553811       -15.0700 
  26   2.0000      -0.551101       -14.9962 
  27   2.0000      -0.463463       -12.6115 
  28   2.0000      -0.458412       -12.4740 
  29   2.0000      -0.457936       -12.4611 
  30   2.0000      -0.457137       -12.4393 
  31   2.0000      -0.454178       -12.3588 
  32   2.0000      -0.447226       -12.1696 
  33   0.0000       0.078507         2.1363 
  34   0.0000       0.116187         3.1616 
  35   0.0000       0.136319         3.7094 
  36   0.0000       0.145568         3.9611 
  37   0.0000       0.153850         4.1865 
  38   0.0000       0.165227         4.4960 
  39   0.0000       0.167724         4.5640 
  40   0.0000       0.180104         4.9009 
  41   0.0000       0.185610         5.0507 
  42   0.0000       0.188676         5.1341 
  43   0.0000       0.200509         5.4561 
  44   0.0000       0.204753         5.5716 
  45   0.0000       0.208829         5.6825 
  46   0.0000       0.218856         5.9554 
  47   0.0000       0.224590         6.1114 
  48   0.0000       0.228268         6.2115 
  49   0.0000       0.244394         6.6503 
  50   0.0000       0.247975         6.7477 
  51   0.0000       0.262024         7.1300 
  52   0.0000       0.282472         7.6865 
  53   0.0000       0.283231         7.7071 
  54   0.0000       0.291211         7.9243 
  55   0.0000       0.315686         8.5903 
  56   0.0000       0.318926         8.6784 
  57   0.0000       0.332203         9.0397 
  58   0.0000       0.346509         9.4290 
  59   0.0000       0.366769         9.9803 
  60   0.0000       0.376982        10.2582 
  61   0.0000       0.382397        10.4056 
  62   0.0000       0.391432        10.6514 
  63   0.0000       0.397286        10.8107 
  64   0.0000       0.414487        11.2788 
  65   0.0000       0.430905        11.7255 
  66   0.0000       0.444490        12.0952 
  67   0.0000       0.475933        12.9508 
  68   0.0000       0.477328        12.9888 
  69   0.0000       0.495365        13.4796 
  70   0.0000       0.520606        14.1664 
  71   0.0000       0.525578        14.3017 
  72   0.0000       0.536688        14.6040 
  73   0.0000       0.546004        14.8575 
  74   0.0000       0.564179        15.3521 
  75   0.0000       0.573123        15.5955 
  76   0.0000       0.588847        16.0233 
  77   0.0000       0.594170        16.1682 
  78   0.0000       0.594902        16.1881 
  79   0.0000       0.600446        16.3390 
  80   0.0000       0.607880        16.5413 
  81   0.0000       0.614063        16.7095 
  82   0.0000       0.620642        16.8885 
  83   0.0000       0.632035        17.1985 
  84   0.0000       0.642184        17.4747 
  85   0.0000       0.656129        17.8542 
  86   0.0000       0.664963        18.0946 
  87   0.0000       0.670482        18.2448 
  88   0.0000       0.700261        19.0551 
  89   0.0000       0.711696        19.3662 
  90   0.0000       0.742269        20.1982 
  91   0.0000       0.758137        20.6300 
  92   0.0000       0.793274        21.5861 
  93   0.0000       0.808949        22.0126 
  94   0.0000       0.813515        22.1369 
  95   0.0000       0.814656        22.1679 
  96   0.0000       0.817331        22.2407 
  97   0.0000       0.817976        22.2583 
  98   0.0000       0.825841        22.4723 
  99   0.0000       0.853133        23.2149 
 100   0.0000       0.859812        23.3967 
 101   0.0000       0.906987        24.6804 
 102   0.0000       0.913643        24.8615 
 103   0.0000       0.917622        24.9698 
 104   0.0000       0.919806        25.0292 
 105   0.0000       0.928431        25.2639 
 106   0.0000       0.933646        25.4058 
 107   0.0000       0.974473        26.5168 
 108   0.0000       1.021222        27.7889 
 109   0.0000       1.038659        28.2633 
 110   0.0000       1.051740        28.6193 
 111   0.0000       1.114290        30.3214 
 112   0.0000       1.120916        30.5017 
 113   0.0000       1.124688        30.6043 
 114   0.0000       1.151031        31.3211 
 115   0.0000       1.167394        31.7664 
 116   0.0000       1.176532        32.0151 
 117   0.0000       1.314843        35.7787 
 118   0.0000       1.320313        35.9275 
 119   0.0000       1.332639        36.2630 
 120   0.0000       1.415380        38.5145 
 121   0.0000       1.417365        38.5685 
 122   0.0000       1.420428        38.6518 
 123   0.0000       1.423613        38.7385 
 124   0.0000       1.431629        38.9566 
 125   0.0000       1.445383        39.3309 
 126   0.0000       1.450072        39.4585 
 127   0.0000       1.457770        39.6679 
 128   0.0000       1.471398        40.0388 
 129   0.0000       1.472070        40.0571 
 130   0.0000       1.472289        40.0630 
 131   0.0000       1.475072        40.1387 
 132   0.0000       1.480333        40.2819 
 133   0.0000       1.486460        40.4486 
 134   0.0000       1.508037        41.0358 
 135   0.0000       1.512731        41.1635 
 136   0.0000       1.517974        41.3062 
 137   0.0000       1.596740        43.4495 
 138   0.0000       1.677775        45.6546 
 139   0.0000       1.697189        46.1829 
 140   0.0000       1.705530        46.4098 
 141   0.0000       1.723396        46.8960 
 142   0.0000       1.728943        47.0469 
 143   0.0000       1.736830        47.2616 
 144   0.0000       1.740689        47.3665 
 145   0.0000       1.743195        47.4348 
 146   0.0000       1.751468        47.6599 
 147   0.0000       1.763705        47.9928 
 148   0.0000       1.771643        48.2089 
 149   0.0000       1.777504        48.3683 
 150   0.0000       1.793523        48.8042 
 151   0.0000       1.798031        48.9269 
 152   0.0000       1.814112        49.3645 
 153   0.0000       1.818099        49.4730 
 154   0.0000       1.834118        49.9089 
 155   0.0000       1.893455        51.5235 
 156   0.0000       1.929960        52.5169 
 157   0.0000       1.931137        52.5489 
 158   0.0000       1.935133        52.6577 
 159   0.0000       1.937645        52.7260 
 160   0.0000       1.953163        53.1483 
 161   0.0000       1.961270        53.3689 
 162   0.0000       1.970336        53.6156 
 163   0.0000       1.984140        53.9912 
 164   0.0000       2.005752        54.5793 
 165   0.0000       2.217850        60.3508 
 166   0.0000       2.225654        60.5631 
 167   0.0000       2.227017        60.6002 
 168   0.0000       2.234989        60.8171 
 169   0.0000       2.237392        60.8825 
 170   0.0000       2.243454        61.0475 
 171   0.0000       2.251804        61.2747 
 172   0.0000       2.269869        61.7663 
 173   0.0000       2.279324        62.0236 
 174   0.0000       2.347177        63.8699 
 175   0.0000       2.387324        64.9624 
 176   0.0000       2.457746        66.8787 
 177   0.0000       2.535406        68.9919 
 178   0.0000       2.541341        69.1534 
 179   0.0000       2.546058        69.2817 
 180   0.0000       2.549446        69.3740 
 181   0.0000       2.562156        69.7198 
 182   0.0000       2.568319        69.8875 
 183   0.0000       2.595882        70.6375 
 184   0.0000       2.605140        70.8895 
 185   0.0000       2.615516        71.1718 
 186   0.0000       2.617590        71.2282 
 187   0.0000       2.621120        71.3243 
 188   0.0000       2.624801        71.4245 
 189   0.0000       2.640876        71.8619 
 190   0.0000       2.651929        72.1627 
 191   0.0000       2.668557        72.6151 
 192   0.0000       2.705882        73.6308 
 193   0.0000       2.708917        73.7134 
 194   0.0000       2.724978        74.1504 
 195   0.0000       2.735160        74.4275 
 196   0.0000       2.738981        74.5315 
 197   0.0000       2.746448        74.7346 
 198   0.0000       2.746714        74.7419 
 199   0.0000       2.752156        74.8900 
 200   0.0000       2.801796        76.2407 
 201   0.0000       2.912782        79.2608 
 202   0.0000       2.912875        79.2634 
 203   0.0000       2.914798        79.3157 
 204   0.0000       2.915301        79.3294 
 205   0.0000       2.915748        79.3415 
 206   0.0000       2.916911        79.3732 
 207   0.0000       2.939543        79.9890 
 208   0.0000       2.941670        80.0469 
 209   0.0000       2.943517        80.0972 
 210   0.0000       2.951323        80.3096 
 211   0.0000       2.956113        80.4399 
 212   0.0000       2.975087        80.9562 
 213   0.0000       3.007161        81.8290 
 214   0.0000       3.023647        82.2776 
 215   0.0000       3.035434        82.5984 
 216   0.0000       3.081701        83.8573 
 217   0.0000       3.085033        83.9480 
 218   0.0000       3.087483        84.0147 
 219   0.0000       3.090212        84.0889 
 220   0.0000       3.101298        84.3906 
 221   0.0000       3.102739        84.4298 
 222   0.0000       3.213233        87.4365 
 223   0.0000       3.234059        88.0032 
 224   0.0000       3.236814        88.0782 
 225   0.0000       3.243436        88.2584 
 226   0.0000       3.243686        88.2652 
 227   0.0000       3.248135        88.3863 
 228   0.0000       3.256146        88.6042 
 229   0.0000       3.259532        88.6964 
 230   0.0000       3.307105        89.9909 
 231   0.0000       3.318041        90.2885 
 232   0.0000       3.326954        90.5310 
 233   0.0000       3.331613        90.6578 
 234   0.0000       3.334544        90.7375 
 235   0.0000       3.339746        90.8791 
 236   0.0000       3.399562        92.5068 
 237   0.0000       3.429675        93.3262 
 238   0.0000       3.440654        93.6250 
 239   0.0000       3.446235        93.7768 
 240   0.0000       3.463573        94.2486 
 241   0.0000       3.466180        94.3196 
 242   0.0000       3.471468        94.4635 
 243   0.0000       3.486534        94.8734 
 244   0.0000       3.505934        95.4013 
 245   0.0000       3.548379        96.5563 
 246   0.0000       3.627746        98.7160 
 247   0.0000       3.633985        98.8858 
 248   0.0000       3.644141        99.1621 
 249   0.0000       3.646865        99.2363 
 250   0.0000       3.653905        99.4278 
 251   0.0000       3.656959        99.5109 
 252   0.0000       3.795836       103.2899 
 253   0.0000       3.798107       103.3517 
 254   0.0000       3.800102       103.4060 
 255   0.0000       3.800770       103.4242 
 256   0.0000       3.801166       103.4350 
 257   0.0000       3.809483       103.6613 
 258   0.0000       3.920580       106.6844 
 259   0.0000       3.922818       106.7453 
 260   0.0000       3.933602       107.0388 
 261   0.0000       3.935296       107.0849 
 262   0.0000       3.941678       107.2585 
 263   0.0000       3.949497       107.4713 
 264   0.0000       3.956020       107.6488 
 265   0.0000       3.964300       107.8741 
 266   0.0000       4.008706       109.0824 
 267   0.0000       4.236945       115.2931 
 268   0.0000       4.241914       115.4283 
 269   0.0000       4.248436       115.6058 
 270   0.0000       4.254668       115.7754 
 271   0.0000       4.256276       115.8191 
 272   0.0000       4.276419       116.3673 
 273   0.0000       4.342340       118.1611 
 274   0.0000       4.345300       118.2416 
 275   0.0000       4.346382       118.2711 
 276   0.0000       4.347261       118.2950 
 277   0.0000       4.349688       118.3610 
 278   0.0000       4.350111       118.3725 
 279   0.0000       4.553740       123.9136 
 280   0.0000       4.557815       124.0244 
 281   0.0000       4.574879       124.4888 
 282   0.0000       4.731043       128.7382 
 283   0.0000       4.734310       128.8271 
 284   0.0000       4.739043       128.9559 
 285   0.0000       4.750608       129.2706 
 286   0.0000       4.754175       129.3677 
 287   0.0000       4.798835       130.5830 
 288   0.0000       4.821675       131.2044 
 289   0.0000       4.837436       131.6333 
 290   0.0000       4.893106       133.1482 
 291   0.0000       4.960461       134.9810 
 292   0.0000       4.962195       135.0282 
 293   0.0000       4.963732       135.0700 
 294   0.0000       4.964078       135.0794 
 295   0.0000       4.964333       135.0864 
 296   0.0000       4.976812       135.4259 
 297   0.0000       5.068490       137.9206 
 298   0.0000       5.068901       137.9318 
 299   0.0000       5.069338       137.9437 
 300   0.0000       5.070272       137.9691 
 301   0.0000       5.071552       138.0039 
 302   0.0000       5.085736       138.3899 
 303   0.0000       5.193245       141.3154 
 304   0.0000       5.201959       141.5525 
 305   0.0000       5.255566       143.0112 
 306   0.0000       5.555588       151.1752 
 307   0.0000       5.557830       151.2362 
 308   0.0000       5.559121       151.2714 
 309   0.0000       5.560304       151.3036 
 310   0.0000       5.569022       151.5408 
 311   0.0000       5.595651       152.2654 
 312   0.0000       6.020534       163.8271 
 313   0.0000       6.023981       163.9208 
 314   0.0000       6.033296       164.1743 
 315   0.0000       6.081739       165.4925 
 316   0.0000       6.086480       165.6215 
 317   0.0000       6.089831       165.7127 
 318   0.0000       6.094103       165.8290 
 319   0.0000       6.107929       166.2052 
 320   0.0000       6.127799       166.7459 
 321   0.0000       6.461397       175.8236 
 322   0.0000       6.467036       175.9770 
 323   0.0000       6.479524       176.3168 
 324   0.0000      23.462865       638.4570 
 325   0.0000      23.473428       638.7445 
 326   0.0000      23.546548       640.7341 
 327   0.0000      24.375993       663.3045 
 328   0.0000      24.382447       663.4801 
 329   0.0000      24.412901       664.3088 
 330   0.0000      33.375597       908.1962 
 331   0.0000      33.423493       909.4995 
 332   0.0000      33.463753       910.5950 

                    ********************************
                    * MULLIKEN POPULATION ANALYSIS *
                    ********************************

-----------------------
MULLIKEN ATOMIC CHARGES
-----------------------
   0 C :   -0.171862
   1 H :    0.153030
   2 H :    0.160518
   3 H :    0.145574
   4 C :   -0.108812
   5 N :   -0.178424
   6 C :   -0.167732
   7 H :    0.148048
   8 H :    0.136928
   9 H :    0.168484
  10 C :   -0.126189
  11 N :   -0.159610
  12 C :   -0.165681
  13 H :    0.146436
  14 H :    0.168199
  15 H :    0.139523
  16 C :   -0.126005
  17 N :   -0.162426
Sum of atomic charges:    0.0000000

--------------------------------
MULLIKEN REDUCED ORBITAL CHARGES
--------------------------------
  0 C s       :     3.148459  s :     3.148459
      pz      :     0.801337  p :     2.956685
      px      :     1.068989
      py      :     1.086359
      dz2     :     0.017608  d :     0.063229
      dxz     :     0.012228
      dyz     :     0.012040
      dx2y2   :     0.010092
      dxy     :     0.011261
      f0      :     0.001720  f :     0.003489
      f+1     :     0.000215
      f-1     :     0.000211
      f+2     :     0.000069
      f-2     :     0.000076
      f+3     :     0.000808
      f-3     :     0.000389
  1 H s       :     0.824633  s :     0.824633
      pz      :     0.004643  p :     0.022337
      px      :     0.008215
      py      :     0.009479
  2 H s       :     0.817074  s :     0.817074
      pz      :     0.004908  p :     0.022408
      px      :     0.004773
      py      :     0.012727
  3 H s       :     0.832180  s :     0.832180
      pz      :     0.005104  p :     0.022246
      px      :     0.012975
      py      :     0.004167
  4 C s       :     3.229750  s :     3.229750
      pz      :     0.961057  p :     2.748483
      px      :     0.892977
      py      :     0.894449
      dz2     :     0.027155  d :     0.113195
      dxz     :     0.043136
      dyz     :     0.042147
      dx2y2   :     0.000151
      dxy     :     0.000605
      f0      :     0.004174  f :     0.017383
      f+1     :     0.006527
      f-1     :     0.006533
      f+2     :     0.000057
      f-2     :     0.000091
      f+3     :     0.000000
      f-3     :     0.000000
  5 N s       :     3.722665  s :     3.722665
      pz      :     1.282019  p :     3.397416
      px      :     1.059642
      py      :     1.055755
      dz2     :     0.011788  d :     0.055377
      dxz     :     0.021665
      dyz     :     0.021784
      dx2y2   :     0.000074
      dxy     :     0.000067
      f0      :     0.000629  f :     0.002965
      f+1     :     0.001153
      f-1     :     0.001166
      f+2     :     0.000009
      f-2     :     0.000009
      f+3     :     0.000000
      f-3     :     0.000000
  6 C s       :     3.142033  s :     3.142033
      pz      :     0.803083  p :     2.958139
      px      :     1.074639
      py      :     1.080417
      dz2     :     0.017943  d :     0.064074
      dxz     :     0.010898
      dyz     :     0.013416
      dx2y2   :     0.010301
      dxy     :     0.011516
      f0      :     0.001647  f :     0.003486
      f+1     :     0.000238
      f-1     :     0.000247
      f+2     :     0.000075
      f-2     :     0.000068
      f+3     :     0.000393
      f-3     :     0.000819
  7 H s       :     0.829729  s :     0.829729
      pz      :     0.005381  p :     0.022223
      px      :     0.003987
      py      :     0.012854
  8 H s       :     0.840988  s :     0.840988
      pz      :     0.004381  p :     0.022084
      px      :     0.012845
      py      :     0.004858
  9 H s       :     0.809134  s :     0.809134
      pz      :     0.004662  p :     0.022382
      px      :     0.009176
      py      :     0.008544
 10 C s       :     3.234303  s :     3.234303
      pz      :     0.956449  p :     2.762561
      px      :     0.903313
      py      :     0.902799
      dz2     :     0.027488  d :     0.111884
      dxz     :     0.041551
      dyz     :     0.041886
      dx2y2   :     0.000333
      dxy     :     0.000626
      f0      :     0.004220  f :     0.017440
      f+1     :     0.006485
      f-1     :     0.006513
      f+2     :     0.000099
      f-2     :     0.000121
      f+3     :     0.000001
      f-3     :     0.000001
 11 N s       :     3.726384  s :     3.726384
      pz      :     1.279494  p :     3.374588
      px      :     1.047913
      py      :     1.047181
      dz2     :     0.011973  d :     0.055681
      dxz     :     0.021774
      dyz     :     0.021719
      dx2y2   :     0.000107
      dxy     :     0.000109
      f0      :     0.000631  f :     0.002958
      f+1     :     0.001153
      f-1     :     0.001145
      f+2     :     0.000014
      f-2     :     0.000014
      f+3     :     0.000000
      f-3     :     0.000000
 12 C s       :     3.137232  s :     3.137232
      pz      :     0.803270  p :     2.961030
      px      :     1.082382
      py      :     1.075379
      dz2     :     0.017627  d :     0.063933
      dxz     :     0.013111
      dyz     :     0.011560
      dx2y2   :     0.010416
      dxy     :     0.011219
      f0      :     0.001700  f :     0.003485
      f+1     :     0.000231
      f-1     :     0.000217
      f+2     :     0.000054
      f-2     :     0.000094
      f+3     :     0.000535
      f-3     :     0.000653
 13 H s       :     0.831349  s :     0.831349
      pz      :     0.005254  p :     0.022214
      px      :     0.012527
      py      :     0.004434
 14 H s       :     0.809362  s :     0.809362
      pz      :     0.004678  p :     0.022439
      px      :     0.009222
      py      :     0.008539
 15 H s       :     0.838345  s :     0.838345
      pz      :     0.004626  p :     0.022132
      px      :     0.004378
      py      :     0.013128
 16 C s       :     3.234625  s :     3.234625
      pz      :     0.961518  p :     2.762099
      px      :     0.899314
      py      :     0.901267
      dz2     :     0.027398  d :     0.111873
      dxz     :     0.041880
      dyz     :     0.041710
      dx2y2   :     0.000256
      dxy     :     0.000629
      f0      :     0.004211  f :     0.017408
      f+1     :     0.006485
      f-1     :     0.006513
      f+2     :     0.000090
      f-2     :     0.000109
      f+3     :     0.000000
      f-3     :     0.000001
 17 N s       :     3.723051  s :     3.723051
      pz      :     1.281661  p :     3.380780
      px      :     1.050220
      py      :     1.048899
      dz2     :     0.011945  d :     0.055628
      dxz     :     0.021628
      dyz     :     0.021782
      dx2y2   :     0.000133
      dxy     :     0.000139
      f0      :     0.000634  f :     0.002967
      f+1     :     0.001144
      f-1     :     0.001161
      f+2     :     0.000014
      f-2     :     0.000014
      f+3     :     0.000000
      f-3     :     0.000000


                     *******************************
                     * LOEWDIN POPULATION ANALYSIS *
                     *******************************

----------------------
LOEWDIN ATOMIC CHARGES
----------------------
   0 C :   -0.247730
   1 H :    0.141346
   2 H :    0.143532
   3 H :    0.140365
   4 C :   -0.202087
   5 N :    0.024566
   6 C :   -0.250981
   7 H :    0.140335
   8 H :    0.137563
   9 H :    0.145219
  10 C :   -0.210321
  11 N :    0.038196
  12 C :   -0.250518
  13 H :    0.140526
  14 H :    0.143586
  15 H :    0.138852
  16 C :   -0.207740
  17 N :    0.035290

-------------------------------
LOEWDIN REDUCED ORBITAL CHARGES
-------------------------------
  0 C s       :     2.813294  s :     2.813294
      pz      :     1.027280  p :     3.144553
      px      :     1.056968
      py      :     1.060305
      dz2     :     0.076378  d :     0.264433
      dxz     :     0.064046
      dyz     :     0.062402
      dx2y2   :     0.028356
      dxy     :     0.033252
      f0      :     0.007276  f :     0.025450
      f+1     :     0.005073
      f-1     :     0.005230
      f+2     :     0.002483
      f-2     :     0.002130
      f+3     :     0.002197
      f-3     :     0.001061
  1 H s       :     0.797784  s :     0.797784
      pz      :     0.012331  p :     0.060870
      px      :     0.022793
      py      :     0.025747
  2 H s       :     0.795529  s :     0.795529
      pz      :     0.012853  p :     0.060939
      px      :     0.014718
      py      :     0.033368
  3 H s       :     0.799275  s :     0.799275
      pz      :     0.013201  p :     0.060360
      px      :     0.033791
      py      :     0.013368
  4 C s       :     2.837498  s :     2.837498
      pz      :     1.189231  p :     2.860693
      px      :     0.835475
      py      :     0.835987
      dz2     :     0.154625  d :     0.445238
      dxz     :     0.145703
      dyz     :     0.143600
      dx2y2   :     0.000188
      dxy     :     0.001121
      f0      :     0.023089  f :     0.058658
      f+1     :     0.017726
      f-1     :     0.017495
      f+2     :     0.000130
      f-2     :     0.000217
      f+3     :     0.000001
      f-3     :     0.000001
  5 N s       :     3.314807  s :     3.314807
      pz      :     1.493615  p :     3.533386
      px      :     1.021819
      py      :     1.017952
      dz2     :     0.045921  d :     0.112740
      dxz     :     0.033288
      dyz     :     0.033320
      dx2y2   :     0.000110
      dxy     :     0.000100
      f0      :     0.006213  f :     0.014501
      f+1     :     0.004122
      f-1     :     0.004103
      f+2     :     0.000033
      f-2     :     0.000030
      f+3     :     0.000000
      f-3     :     0.000000
  6 C s       :     2.813192  s :     2.813192
      pz      :     1.032407  p :     3.145021
      px      :     1.055754
      py      :     1.056860
      dz2     :     0.076711  d :     0.266991
      dxz     :     0.058845
      dyz     :     0.068227
      dx2y2   :     0.030027
      dxy     :     0.033181
      f0      :     0.007207  f :     0.025777
      f+1     :     0.005787
      f-1     :     0.005013
      f+2     :     0.002389
      f-2     :     0.002038
      f+3     :     0.001091
      f-3     :     0.002253
  7 H s       :     0.799352  s :     0.799352
      pz      :     0.013782  p :     0.060313
      px      :     0.012947
      py      :     0.033584
  8 H s       :     0.802424  s :     0.802424
      pz      :     0.011865  p :     0.060013
      px      :     0.033277
      py      :     0.014872
  9 H s       :     0.794134  s :     0.794134
      pz      :     0.012444  p :     0.060648
      px      :     0.024929
      py      :     0.023275
 10 C s       :     2.836261  s :     2.836261
      pz      :     1.187599  p :     2.870412
      px      :     0.840940
      py      :     0.841873
      dz2     :     0.155630  d :     0.445141
      dxz     :     0.143028
      dyz     :     0.144369
      dx2y2   :     0.000740
      dxy     :     0.001374
      f0      :     0.023083  f :     0.058508
      f+1     :     0.017323
      f-1     :     0.017558
      f+2     :     0.000236
      f-2     :     0.000304
      f+3     :     0.000001
      f-3     :     0.000002
 11 N s       :     3.314671  s :     3.314671
      pz      :     1.491693  p :     3.518597
      px      :     1.013355
      py      :     1.013549
      dz2     :     0.045964  d :     0.113973
      dxz     :     0.033782
      dyz     :     0.033875
      dx2y2   :     0.000169
      dxy     :     0.000182
      f0      :     0.006165  f :     0.014563
      f+1     :     0.004135
      f-1     :     0.004161
      f+2     :     0.000052
      f-2     :     0.000050
      f+3     :     0.000000
      f-3     :     0.000000
 12 C s       :     2.813264  s :     2.813264
      pz      :     1.030185  p :     3.145378
      px      :     1.058560
      py      :     1.056632
      dz2     :     0.076015  d :     0.266292
      dxz     :     0.066746
      dyz     :     0.061218
      dx2y2   :     0.030324
      dxy     :     0.031989
      f0      :     0.007222  f :     0.025585
      f+1     :     0.005031
      f-1     :     0.005467
      f+2     :     0.002437
      f-2     :     0.002150
      f+3     :     0.001478
      f-3     :     0.001800
 13 H s       :     0.799184  s :     0.799184
      pz      :     0.013499  p :     0.060290
      px      :     0.032839
      py      :     0.013952
 14 H s       :     0.795493  s :     0.795493
      pz      :     0.012444  p :     0.060921
      px      :     0.024972
      py      :     0.023504
 15 H s       :     0.801100  s :     0.801100
      pz      :     0.012264  p :     0.060047
      px      :     0.013809
      py      :     0.033974
 16 C s       :     2.836904  s :     2.836904
      pz      :     1.187975  p :     2.868228
      px      :     0.840636
      py      :     0.839618
      dz2     :     0.155195  d :     0.444042
      dxz     :     0.144250
      dyz     :     0.142846
      dx2y2   :     0.000484
      dxy     :     0.001267
      f0      :     0.023084  f :     0.058565
      f+1     :     0.017637
      f-1     :     0.017357
      f+2     :     0.000220
      f-2     :     0.000263
      f+3     :     0.000002
      f-3     :     0.000002
 17 N s       :     3.314264  s :     3.314264
      pz      :     1.492577  p :     3.522150
      px      :     1.016065
      py      :     1.013507
      dz2     :     0.045934  d :     0.113715
      dxz     :     0.033766
      dyz     :     0.033621
      dx2y2   :     0.000188
      dxy     :     0.000206
      f0      :     0.006184  f :     0.014581
      f+1     :     0.004176
      f-1     :     0.004121
      f+2     :     0.000052
      f-2     :     0.000049
      f+3     :     0.000000
      f-3     :     0.000000


                      *****************************
                      * MAYER POPULATION ANALYSIS *
                      *****************************

  NA   - Mulliken gross atomic population
  ZA   - Total nuclear charge
  QA   - Mulliken gross atomic charge
  VA   - Mayer's total valence
  BVA  - Mayer's bonded valence
  FA   - Mayer's free valence

  ATOM       NA         ZA         QA         VA         BVA        FA
  0 C      6.1719     6.0000    -0.1719     3.8149     3.8149    -0.0000
  1 H      0.8470     1.0000     0.1530     0.9612     0.9612     0.0000
  2 H      0.8395     1.0000     0.1605     0.9623     0.9623    -0.0000
  3 H      0.8544     1.0000     0.1456     0.9611     0.9611    -0.0000
  4 C      6.1088     6.0000    -0.1088     3.9124     3.9124    -0.0000
  5 N      7.1784     7.0000    -0.1784     3.0324     3.0324     0.0000
  6 C      6.1677     6.0000    -0.1677     3.8218     3.8218     0.0000
  7 H      0.8520     1.0000     0.1480     0.9633     0.9633    -0.0000
  8 H      0.8631     1.0000     0.1369     0.9628     0.9628     0.0000
  9 H      0.8315     1.0000     0.1685     0.9596     0.9596     0.0000
 10 C      6.1262     6.0000    -0.1262     3.8964     3.8964    -0.0000
 11 N      7.1596     7.0000    -0.1596     3.0272     3.0272    -0.0000
 12 C      6.1657     6.0000    -0.1657     3.8219     3.8219     0.0000
 13 H      0.8536     1.0000     0.1464     0.9633     0.9633     0.0000
 14 H      0.8318     1.0000     0.1682     0.9602     0.9602     0.0000
 15 H      0.8605     1.0000     0.1395     0.9632     0.9632     0.0000
 16 C      6.1260     6.0000    -0.1260     3.9102     3.9102     0.0000
 17 N      7.1624     7.0000    -0.1624     3.0299     3.0299     0.0000

  Mayer bond orders larger than 0.100000
B(  0-C ,  1-H ) :   0.9660 B(  0-C ,  2-H ) :   0.9620 B(  0-C ,  3-H ) :   0.9677 
B(  0-C ,  4-C ) :   0.9290 B(  4-C ,  5-N ) :   3.0065 B(  6-C ,  7-H ) :   0.9693 
B(  6-C ,  8-H ) :   0.9739 B(  6-C ,  9-H ) :   0.9580 B(  6-C , 10-C ) :   0.9242 
B( 10-C , 11-N ) :   3.0021 B( 12-C , 13-H ) :   0.9708 B( 12-C , 14-H ) :   0.9568 
B( 12-C , 15-H ) :   0.9703 B( 12-C , 16-C ) :   0.9294 B( 16-C , 17-N ) :   3.0060 


-------
TIMINGS
-------

Total SCF time: 0 days 0 hours 0 min 37 sec 

Total time                  ....      37.644 sec
Sum of individual times     ....      37.269 sec  ( 99.0%)

Fock matrix formation       ....      36.606 sec  ( 97.2%)
Diagonalization             ....       0.196 sec  (  0.5%)
Density matrix formation    ....       0.029 sec  (  0.1%)
Population analysis         ....       0.014 sec  (  0.0%)
Initial guess               ....       0.178 sec  (  0.5%)
Orbital Transformation      ....       0.000 sec  (  0.0%)
Orbital Orthonormalization  ....       0.000 sec  (  0.0%)
DIIS solution               ....       0.066 sec  (  0.2%)
SOSCF solution              ....       0.090 sec  (  0.2%)


           ************************************************************
           *        Program running with 6 parallel MPI-processes     *
           *              working on a common directory               *
           ************************************************************

------------------------------------------------------------------------------
                                ORCA  MP2 
------------------------------------------------------------------------------

Freezing NCore=18 chemical core electrons
MP2 will be done in the AO integral direct mode
The Q1-step will be done using symmetric double matrices
Dimension of the basis                    ...  333
Memory devoted for MP2                    ... 8000 MB   
Memory needed for all in one shot         ...  566 MB
Number of MOs that can be treated together...   55      
MP2 density construction                  ... relaxed
The MP2 gradient is requested => amplitudes will be stored on disk
Total number of MOs              ...   24
Number of MOs treated per batch  ...    4 
Number of batches necessary      ...    1 
OPERATORS   0/  0 PASS   0
-----------------------------------------------
 MP2 CORRELATION ENERGY   :     -1.531010670 Eh
-----------------------------------------------


---------------------
MP2 DENSITY FORMATION
---------------------

Completing the external part of the density      ... done
Storing the unrelaxed density                    ... done

Calculating G(D)                                 ... done
Completing the Lagrangian                        ... done
Solving the Z-vector equations                   ... 

------------------------------------------------------------------------------
                           ORCA CP-SCF CALCULATION
------------------------------------------------------------------------------

Input orbitals are from        ... 12mecn.remya.etal.2.mol6,7,11-orca.engrad-mp2.def2tzvp.frozencore.gbw
Input Perturbation             ... 12mecn.remya.etal.2.mol6,7,11-orca.engrad-mp2.def2tzvp.frozencore.pin.tmp
Wavefunction output            ... 12mecn.remya.etal.2.mol6,7,11-orca.engrad-mp2.def2tzvp.frozencore.pout.tmp
Perturbation mode              ... Real perturbation (singlet)
Solver                         ... POPLE
Max. number of iterations      ... 128
Convergence tolerance          ... 1.000e-08
Integral handling              ... Direct
Number of perturbations        ... 1
Number of operators            ... 1
Orbital ranges used for CP-SCF:
 Operator 0:  Orbitals   0... 32  to  33...332
Variables per vector in CP-SCF ... 9900
Number of vectors sought       ... 1
     CP-SCF ITERATION   0: 
     CP-SCF ITERATION   1:      0.001442747994
     CP-SCF ITERATION   2:      0.000302608813
     CP-SCF ITERATION   3:      0.000006421770
     CP-SCF ITERATION   4:      0.000000592623
     CP-SCF ITERATION   5:      0.000000141482
     CP-SCF ITERATION   6:      0.000000023386
     CP-SCF ITERATION   7:      0.000000006213
                                                 ... done
Finalizing the relaxed density                   ... done
Transforming P to the AO basis                   ... done
Storing the relaxed density                      ... done

------------------------------------
ENERGY WEIGHTED DENSITY FINALIZATION
------------------------------------

Gathering the parts of the W-matrix              ...                                                      done
Forming the Z-density                            ... done
Transforming Z to the AO basis                   ... done
Calculating G(Z)                                 ... done
Finalizing the W-matrix                          ...                                                      done
Transforming W to the AO basis and storing       ... done

                *********************************************
                * UNRELAXED MP2 DENSITY POPULATION ANALYSIS *
                *********************************************

------------------------------------------------------------------------------
                           ORCA POPULATION ANALYSIS
------------------------------------------------------------------------------
Input electron density              ... 12mecn.remya.etal.2.mol6,7,11-orca.engrad-mp2.def2tzvp.frozencore.pmp2ur
BaseName (.gbw .S,...)              ... 12mecn.remya.etal.2.mol6,7,11-orca.engrad-mp2.def2tzvp.frozencore

                    ********************************
                    * MULLIKEN POPULATION ANALYSIS *
                    ********************************

-----------------------
MULLIKEN ATOMIC CHARGES
-----------------------
   0 C :   -0.185244
   1 H :    0.155628
   2 H :    0.163100
   3 H :    0.148154
   4 C :   -0.116916
   5 N :   -0.164698
   6 C :   -0.181440
   7 H :    0.150717
   8 H :    0.139613
   9 H :    0.171208
  10 C :   -0.133924
  11 N :   -0.146245
  12 C :   -0.179455
  13 H :    0.149118
  14 H :    0.170924
  15 H :    0.142209
  16 C :   -0.133742
  17 N :   -0.149007
Sum of atomic charges:    0.0000000

--------------------------------
MULLIKEN REDUCED ORBITAL CHARGES
--------------------------------
  0 C s       :     3.146907  s :     3.146907
      pz      :     0.799998  p :     2.942205
      px      :     1.062444
      py      :     1.079763
      dz2     :     0.020146  d :     0.088785
      dxz     :     0.018261
      dyz     :     0.018157
      dx2y2   :     0.015564
      dxy     :     0.016656
      f0      :     0.002116  f :     0.007347
      f+1     :     0.000882
      f-1     :     0.000882
      f+2     :     0.000608
      f-2     :     0.000619
      f+3     :     0.001310
      f-3     :     0.000931
  1 H s       :     0.819189  s :     0.819189
      pz      :     0.005652  p :     0.025183
      px      :     0.009145
      py      :     0.010386
  2 H s       :     0.811685  s :     0.811685
      pz      :     0.005899  p :     0.025215
      px      :     0.005785
      py      :     0.013531
  3 H s       :     0.826727  s :     0.826727
      pz      :     0.006106  p :     0.025119
      px      :     0.013797
      py      :     0.005216
  4 C s       :     3.229364  s :     3.229364
      pz      :     0.952207  p :     2.738206
      px      :     0.892368
      py      :     0.893631
      dz2     :     0.029629  d :     0.128995
      dxz     :     0.045274
      dyz     :     0.044310
      dx2y2   :     0.004668
      dxy     :     0.005114
      f0      :     0.004636  f :     0.020352
      f+1     :     0.006970
      f-1     :     0.006976
      f+2     :     0.000610
      f-2     :     0.000644
      f+3     :     0.000258
      f-3     :     0.000258
  5 N s       :     3.709799  s :     3.709799
      pz      :     1.269733  p :     3.372119
      px      :     1.053043
      py      :     1.049343
      dz2     :     0.015938  d :     0.077123
      dxz     :     0.025638
      dyz     :     0.025746
      dx2y2   :     0.004903
      dxy     :     0.004897
      f0      :     0.001055  f :     0.005657
      f+1     :     0.001597
      f-1     :     0.001609
      f+2     :     0.000423
      f-2     :     0.000422
      f+3     :     0.000276
      f-3     :     0.000276
  6 C s       :     3.140506  s :     3.140506
      pz      :     0.801578  p :     2.943876
      px      :     1.068291
      py      :     1.074007
      dz2     :     0.020467  d :     0.089708
      dxz     :     0.017065
      dyz     :     0.019422
      dx2y2   :     0.015757
      dxy     :     0.016997
      f0      :     0.002053  f :     0.007350
      f+1     :     0.000899
      f-1     :     0.000915
      f+2     :     0.000613
      f-2     :     0.000613
      f+3     :     0.000937
      f-3     :     0.001320
  7 H s       :     0.824188  s :     0.824188
      pz      :     0.006377  p :     0.025095
      px      :     0.005044
      py      :     0.013674
  8 H s       :     0.835390  s :     0.835390
      pz      :     0.005417  p :     0.024997
      px      :     0.013680
      py      :     0.005900
  9 H s       :     0.803601  s :     0.803601
      pz      :     0.005664  p :     0.025191
      px      :     0.010069
      py      :     0.009459
 10 C s       :     3.234242  s :     3.234242
      pz      :     0.947617  p :     2.751223
      px      :     0.902060
      py      :     0.901546
      dz2     :     0.029997  d :     0.128035
      dxz     :     0.043770
      dyz     :     0.044132
      dx2y2   :     0.004928
      dxy     :     0.005208
      f0      :     0.004681  f :     0.020423
      f+1     :     0.006931
      f-1     :     0.006959
      f+2     :     0.000653
      f-2     :     0.000674
      f+3     :     0.000262
      f-3     :     0.000263
 11 N s       :     3.713321  s :     3.713321
      pz      :     1.267172  p :     3.349976
      px      :     1.041745
      py      :     1.041059
      dz2     :     0.016104  d :     0.077308
      dxz     :     0.025697
      dyz     :     0.025644
      dx2y2   :     0.004929
      dxy     :     0.004934
      f0      :     0.001057  f :     0.005640
      f+1     :     0.001594
      f-1     :     0.001586
      f+2     :     0.000427
      f-2     :     0.000427
      f+3     :     0.000275
      f-3     :     0.000275
 12 C s       :     3.135751  s :     3.135751
      pz      :     0.801780  p :     2.946772
      px      :     1.075992
      py      :     1.069000
      dz2     :     0.020154  d :     0.089588
      dxz     :     0.019151
      dyz     :     0.017708
      dx2y2   :     0.015841
      dxy     :     0.016733
      f0      :     0.002100  f :     0.007343
      f+1     :     0.000899
      f-1     :     0.000884
      f+2     :     0.000594
      f-2     :     0.000635
      f+3     :     0.001062
      f-3     :     0.001168
 13 H s       :     0.825787  s :     0.825787
      pz      :     0.006254  p :     0.025096
      px      :     0.013362
      py      :     0.005479
 14 H s       :     0.803832  s :     0.803832
      pz      :     0.005678  p :     0.025244
      px      :     0.010116
      py      :     0.009451
 15 H s       :     0.832758  s :     0.832758
      pz      :     0.005650  p :     0.025033
      px      :     0.005430
      py      :     0.013953
 16 C s       :     3.234479  s :     3.234479
      pz      :     0.952589  p :     2.750946
      px      :     0.898236
      py      :     0.900121
      dz2     :     0.029873  d :     0.127932
      dxz     :     0.044110
      dyz     :     0.043922
      dx2y2   :     0.004836
      dxy     :     0.005192
      f0      :     0.004672  f :     0.020385
      f+1     :     0.006929
      f-1     :     0.006956
      f+2     :     0.000643
      f-2     :     0.000661
      f+3     :     0.000261
      f-3     :     0.000261
 17 N s       :     3.710068  s :     3.710068
      pz      :     1.269327  p :     3.355998
      px      :     1.043975
      py      :     1.042696
      dz2     :     0.016082  d :     0.077289
      dxz     :     0.025566
      dyz     :     0.025715
      dx2y2   :     0.004957
      dxy     :     0.004968
      f0      :     0.001061  f :     0.005652
      f+1     :     0.001585
      f-1     :     0.001602
      f+2     :     0.000427
      f-2     :     0.000427
      f+3     :     0.000275
      f-3     :     0.000275


                     *******************************
                     * LOEWDIN POPULATION ANALYSIS *
                     *******************************

----------------------
LOEWDIN ATOMIC CHARGES
----------------------
   0 C :   -0.255847
   1 H :    0.143006
   2 H :    0.145228
   3 H :    0.141979
   4 C :   -0.206972
   5 N :    0.032600
   6 C :   -0.259184
   7 H :    0.141978
   8 H :    0.139159
   9 H :    0.146912
  10 C :   -0.214950
  11 N :    0.046092
  12 C :   -0.258702
  13 H :    0.142158
  14 H :    0.145305
  15 H :    0.140468
  16 C :   -0.212445
  17 N :    0.043218

-------------------------------
LOEWDIN REDUCED ORBITAL CHARGES
-------------------------------
  0 C s       :     2.811498  s :     2.811498
      pz      :     1.018761  p :     3.120132
      px      :     1.049023
      py      :     1.052348
      dz2     :     0.081612  d :     0.292749
      dxz     :     0.069876
      dyz     :     0.068235
      dx2y2   :     0.034065
      dxy     :     0.038961
      f0      :     0.008396  f :     0.031467
      f+1     :     0.006128
      f-1     :     0.006289
      f+2     :     0.003161
      f-2     :     0.002806
      f+3     :     0.002943
      f-3     :     0.001743
  1 H s       :     0.791338  s :     0.791338
      pz      :     0.013730  p :     0.065656
      px      :     0.024414
      py      :     0.027512
  2 H s       :     0.789109  s :     0.789109
      pz      :     0.014268  p :     0.065663
      px      :     0.016002
      py      :     0.035394
  3 H s       :     0.792827  s :     0.792827
      pz      :     0.014658  p :     0.065194
      px      :     0.035918
      py      :     0.014618
  4 C s       :     2.834264  s :     2.834264
      pz      :     1.176704  p :     2.841276
      px      :     0.832086
      py      :     0.832486
      dz2     :     0.161958  d :     0.465046
      dxz     :     0.147413
      dyz     :     0.145364
      dx2y2   :     0.004704
      dxy     :     0.005607
      f0      :     0.024703  f :     0.066386
      f+1     :     0.019847
      f-1     :     0.019621
      f+2     :     0.000802
      f-2     :     0.000894
      f+3     :     0.000260
      f-3     :     0.000259
  5 N s       :     3.306928  s :     3.306928
      pz      :     1.477714  p :     3.499488
      px      :     1.012749
      py      :     1.009025
      dz2     :     0.052720  d :     0.142066
      dxz     :     0.039797
      dyz     :     0.039808
      dx2y2   :     0.004875
      dxy     :     0.004866
      f0      :     0.007282  f :     0.018918
      f+1     :     0.005085
      f-1     :     0.005062
      f+2     :     0.000470
      f-2     :     0.000467
      f+3     :     0.000276
      f-3     :     0.000276
  6 C s       :     2.811420  s :     2.811420
      pz      :     1.023798  p :     3.120489
      px      :     1.047801
      py      :     1.048890
      dz2     :     0.082004  d :     0.295455
      dxz     :     0.064685
      dyz     :     0.074056
      dx2y2   :     0.035750
      dxy     :     0.038960
      f0      :     0.008326  f :     0.031820
      f+1     :     0.006853
      f-1     :     0.006072
      f+2     :     0.003068
      f-2     :     0.002713
      f+3     :     0.001780
      f-3     :     0.003009
  7 H s       :     0.792872  s :     0.792872
      pz      :     0.015266  p :     0.065150
      px      :     0.014186
      py      :     0.035699
  8 H s       :     0.795923  s :     0.795923
      pz      :     0.013259  p :     0.064918
      px      :     0.035449
      py      :     0.016210
  9 H s       :     0.787690  s :     0.787690
      pz      :     0.013842  p :     0.065398
      px      :     0.026629
      py      :     0.024928
 10 C s       :     2.833077  s :     2.833077
      pz      :     1.175037  p :     2.850227
      px      :     0.837153
      py      :     0.838037
      dz2     :     0.162996  d :     0.465344
      dxz     :     0.144866
      dyz     :     0.146209
      dx2y2   :     0.005323
      dxy     :     0.005949
      f0      :     0.024706  f :     0.066302
      f+1     :     0.019461
      f-1     :     0.019697
      f+2     :     0.000918
      f-2     :     0.000990
      f+3     :     0.000265
      f-3     :     0.000266
 11 N s       :     3.306719  s :     3.306719
      pz      :     1.475727  p :     3.485027
      px      :     1.004549
      py      :     1.004751
      dz2     :     0.052753  d :     0.143190
      dxz     :     0.040227
      dyz     :     0.040320
      dx2y2   :     0.004935
      dxy     :     0.004956
      f0      :     0.007234  f :     0.018972
      f+1     :     0.005091
      f-1     :     0.005118
      f+2     :     0.000490
      f-2     :     0.000488
      f+3     :     0.000275
      f-3     :     0.000275
 12 C s       :     2.811491  s :     2.811491
      pz      :     1.021606  p :     3.120850
      px      :     1.050577
      py      :     1.048667
      dz2     :     0.081301  d :     0.294745
      dxz     :     0.072583
      dyz     :     0.067058
      dx2y2   :     0.036038
      dxy     :     0.037766
      f0      :     0.008343  f :     0.031617
      f+1     :     0.006088
      f-1     :     0.006528
      f+2     :     0.003117
      f-2     :     0.002828
      f+3     :     0.002186
      f-3     :     0.002527
 13 H s       :     0.792700  s :     0.792700
      pz      :     0.014976  p :     0.065143
      px      :     0.034937
      py      :     0.015229
 14 H s       :     0.789037  s :     0.789037
      pz      :     0.013841  p :     0.065658
      px      :     0.026676
      py      :     0.025141
 15 H s       :     0.794602  s :     0.794602
      pz      :     0.013684  p :     0.064930
      px      :     0.015088
      py      :     0.036158
 16 C s       :     2.833711  s :     2.833711
      pz      :     1.175411  p :     2.848192
      px      :     0.836897
      py      :     0.835884
      dz2     :     0.162566  d :     0.464210
      dxz     :     0.146093
      dyz     :     0.144667
      dx2y2   :     0.005060
      dxy     :     0.005823
      f0      :     0.024703  f :     0.066332
      f+1     :     0.019762
      f-1     :     0.019493
      f+2     :     0.000898
      f-2     :     0.000949
      f+3     :     0.000264
      f-3     :     0.000264
 17 N s       :     3.306331  s :     3.306331
      pz      :     1.476635  p :     3.488483
      px      :     1.007173
      py      :     1.004675
      dz2     :     0.052725  d :     0.142975
      dxz     :     0.040234
      dyz     :     0.040080
      dx2y2   :     0.004955
      dxy     :     0.004981
      f0      :     0.007253  f :     0.018993
      f+1     :     0.005135
      f-1     :     0.005077
      f+2     :     0.000490
      f-2     :     0.000487
      f+3     :     0.000276
      f-3     :     0.000276


                      *****************************
                      * MAYER POPULATION ANALYSIS *
                      *****************************

  NA   - Mulliken gross atomic population
  ZA   - Total nuclear charge
  QA   - Mulliken gross atomic charge
  VA   - Mayer's total valence
  BVA  - Mayer's bonded valence
  FA   - Mayer's free valence

  ATOM       NA         ZA         QA         VA         BVA        FA
  0 C      6.1852     6.0000    -0.1852     3.9329     3.6491     0.2838
  1 H      0.8444     1.0000     0.1556     0.9689     0.9212     0.0477
  2 H      0.8369     1.0000     0.1631     0.9696     0.9225     0.0471
  3 H      0.8518     1.0000     0.1482     0.9690     0.9206     0.0484
  4 C      6.1169     6.0000    -0.1169     4.0143     3.5745     0.4399
  5 N      7.1647     7.0000    -0.1647     3.2258     2.7408     0.4850
  6 C      6.1814     6.0000    -0.1814     3.9404     3.6546     0.2858
  7 H      0.8493     1.0000     0.1507     0.9710     0.9229     0.0481
  8 H      0.8604     1.0000     0.1396     0.9710     0.9220     0.0489
  9 H      0.8288     1.0000     0.1712     0.9666     0.9199     0.0467
 10 C      6.1339     6.0000    -0.1339     4.0008     3.5558     0.4450
 11 N      7.1462     7.0000    -0.1462     3.2189     2.7327     0.4863
 12 C      6.1795     6.0000    -0.1795     3.9406     3.6548     0.2858
 13 H      0.8509     1.0000     0.1491     0.9711     0.9228     0.0483
 14 H      0.8291     1.0000     0.1709     0.9672     0.9206     0.0466
 15 H      0.8578     1.0000     0.1422     0.9712     0.9224     0.0488
 16 C      6.1337     6.0000    -0.1337     4.0138     3.5700     0.4438
 17 N      7.1490     7.0000    -0.1490     3.2220     2.7361     0.4860

  Mayer bond orders larger than 0.100000
B(  0-C ,  1-H ) :   0.9285 B(  0-C ,  2-H ) :   0.9248 B(  0-C ,  3-H ) :   0.9298 
B(  0-C ,  4-C ) :   0.8775 B(  4-C ,  5-N ) :   2.7218 B(  6-C ,  7-H ) :   0.9313 
B(  6-C ,  8-H ) :   0.9356 B(  6-C ,  9-H ) :   0.9208 B(  6-C , 10-C ) :   0.8724 
B( 10-C , 11-N ) :   2.7147 B( 12-C , 13-H ) :   0.9327 B( 12-C , 14-H ) :   0.9198 
B( 12-C , 15-H ) :   0.9320 B( 12-C , 16-C ) :   0.8776 B( 16-C , 17-N ) :   2.7192 



                *******************************************
                * RELAXED MP2 DENSITY POPULATION ANALYSIS *
                *******************************************

------------------------------------------------------------------------------
                           ORCA POPULATION ANALYSIS
------------------------------------------------------------------------------
Input electron density              ... 12mecn.remya.etal.2.mol6,7,11-orca.engrad-mp2.def2tzvp.frozencore.pmp2re
BaseName (.gbw .S,...)              ... 12mecn.remya.etal.2.mol6,7,11-orca.engrad-mp2.def2tzvp.frozencore

                    ********************************
                    * MULLIKEN POPULATION ANALYSIS *
                    ********************************

-----------------------
MULLIKEN ATOMIC CHARGES
-----------------------
   0 C :   -0.287031
   1 H :    0.169945
   2 H :    0.176323
   3 H :    0.163010
   4 C :   -0.143073
   5 N :   -0.079149
   6 C :   -0.283799
   7 H :    0.165454
   8 H :    0.155325
   9 H :    0.183509
  10 C :   -0.154535
  11 N :   -0.066064
  12 C :   -0.282188
  13 H :    0.164063
  14 H :    0.183087
  15 H :    0.157805
  16 C :   -0.155581
  17 N :   -0.067103
Sum of atomic charges:    0.0000000

--------------------------------
MULLIKEN REDUCED ORBITAL CHARGES
--------------------------------
  0 C s       :     3.183372  s :     3.183372
      pz      :     0.846081  p :     3.018217
      px      :     1.077566
      py      :     1.094570
      dz2     :     0.015904  d :     0.078351
      dxz     :     0.018285
      dyz     :     0.018260
      dx2y2   :     0.012526
      dxy     :     0.013375
      f0      :     0.001881  f :     0.007091
      f+1     :     0.000941
      f-1     :     0.000942
      f+2     :     0.000594
      f-2     :     0.000608
      f+3     :     0.001231
      f-3     :     0.000893
  1 H s       :     0.805998  s :     0.805998
      pz      :     0.005721  p :     0.024058
      px      :     0.008658
      py      :     0.009678
  2 H s       :     0.799607  s :     0.799607
      pz      :     0.005914  p :     0.024069
      px      :     0.005837
      py      :     0.012318
  3 H s       :     0.812959  s :     0.812959
      pz      :     0.006118  p :     0.024031
      px      :     0.012548
      py      :     0.005364
  4 C s       :     3.208357  s :     3.208357
      pz      :     0.986630  p :     2.811425
      px      :     0.913053
      py      :     0.911742
      dz2     :     0.024776  d :     0.104281
      dxz     :     0.035360
      dyz     :     0.034471
      dx2y2   :     0.004634
      dxy     :     0.005041
      f0      :     0.004443  f :     0.019009
      f+1     :     0.006403
      f-1     :     0.006410
      f+2     :     0.000603
      f-2     :     0.000634
      f+3     :     0.000258
      f-3     :     0.000258
  5 N s       :     3.652861  s :     3.652861
      pz      :     1.258777  p :     3.353040
      px      :     1.047993
      py      :     1.046271
      dz2     :     0.014918  d :     0.068065
      dxz     :     0.021664
      dyz     :     0.021710
      dx2y2   :     0.004889
      dxy     :     0.004885
      f0      :     0.000938  f :     0.005182
      f+1     :     0.001420
      f-1     :     0.001430
      f+2     :     0.000421
[...]
      f+1     :     0.006361
      f-1     :     0.006391
      f+2     :     0.000643
      f-2     :     0.000663
      f+3     :     0.000262
      f-3     :     0.000262
 11 N s       :     3.658365  s :     3.658365
      pz      :     1.255252  p :     3.334317
      px      :     1.039615
      py      :     1.039449
      dz2     :     0.015085  d :     0.068219
      dxz     :     0.021674
      dyz     :     0.021635
      dx2y2   :     0.004909
      dxy     :     0.004916
      f0      :     0.000941  f :     0.005163
      f+1     :     0.001415
      f-1     :     0.001408
      f+2     :     0.000425
      f-2     :     0.000425
      f+3     :     0.000275
      f-3     :     0.000275
 12 C s       :     3.175157  s :     3.175157
      pz      :     0.846817  p :     3.021014
      px      :     1.090299
      py      :     1.083898
      dz2     :     0.015911  d :     0.078930
      dxz     :     0.018994
      dyz     :     0.017902
      dx2y2   :     0.012694
      dxy     :     0.013430
      f0      :     0.001867  f :     0.007086
      f+1     :     0.000957
      f-1     :     0.000944
      f+2     :     0.000582
      f-2     :     0.000621
      f+3     :     0.001010
      f-3     :     0.001105
 13 H s       :     0.811935  s :     0.811935
      pz      :     0.006238  p :     0.024002
      px      :     0.012175
      py      :     0.005589
 14 H s       :     0.792815  s :     0.792815
      pz      :     0.005738  p :     0.024098
      px      :     0.009458
      py      :     0.008901
 15 H s       :     0.818242  s :     0.818242
      pz      :     0.005739  p :     0.023953
      px      :     0.005548
      py      :     0.012666
 16 C s       :     3.213535  s :     3.213535
      pz      :     0.984912  p :     2.819300
      px      :     0.916782
      py      :     0.917606
      dz2     :     0.025507  d :     0.103717
      dxz     :     0.034278
      dyz     :     0.034024
      dx2y2   :     0.004787
      dxy     :     0.005120
      f0      :     0.004472  f :     0.019029
      f+1     :     0.006365
      f-1     :     0.006387
      f+2     :     0.000633
      f-2     :     0.000650
      f+3     :     0.000261
      f-3     :     0.000261
 17 N s       :     3.653989  s :     3.653989
      pz      :     1.257637  p :     3.339735
      px      :     1.041472
      py      :     1.040627
      dz2     :     0.015053  d :     0.068205
      dxz     :     0.021592
      dyz     :     0.021688
      dx2y2   :     0.004931
      dxy     :     0.004941
      f0      :     0.000944  f :     0.005174
      f+1     :     0.001407
      f-1     :     0.001423
      f+2     :     0.000425
      f-2     :     0.000425
      f+3     :     0.000275
      f-3     :     0.000275


                     *******************************
                     * LOEWDIN POPULATION ANALYSIS *
                     *******************************

----------------------
LOEWDIN ATOMIC CHARGES
----------------------
   0 C :   -0.286612
   1 H :    0.149897
   2 H :    0.151908
   3 H :    0.149084
   4 C :   -0.220572
   5 N :    0.056289
   6 C :   -0.289462
   7 H :    0.148999
   8 H :    0.146431
   9 H :    0.153597
  10 C :   -0.227077
  11 N :    0.067474
  12 C :   -0.288954
  13 H :    0.149198
  14 H :    0.151902
  15 H :    0.147687
  16 C :   -0.224922
  17 N :    0.065133

-------------------------------
LOEWDIN REDUCED ORBITAL CHARGES
-------------------------------
  0 C s       :     2.816450  s :     2.816450
      pz      :     1.036374  p :     3.156927
      px      :     1.058823
      py      :     1.061730
      dz2     :     0.074198  d :     0.281571
      dxz     :     0.071207
      dyz     :     0.069633
      dx2y2   :     0.030964
      dxy     :     0.035569
      f0      :     0.007916  f :     0.031664
      f+1     :     0.006542
      f-1     :     0.006700
      f+2     :     0.003143
      f-2     :     0.002785
      f+3     :     0.002871
      f-3     :     0.001708
  1 H s       :     0.784089  s :     0.784089
      pz      :     0.014282  p :     0.066014
      px      :     0.024397
      py      :     0.027336
  2 H s       :     0.782140  s :     0.782140
      pz      :     0.014766  p :     0.065953
      px      :     0.016369
      py      :     0.034817
  3 H s       :     0.785314  s :     0.785314
      pz      :     0.015164  p :     0.065603
      px      :     0.035378
      py      :     0.015061
  4 C s       :     2.840057  s :     2.840057
      pz      :     1.168207  p :     2.864633
      px      :     0.848673
      py      :     0.847753
      dz2     :     0.164127  d :     0.449407
      dxz     :     0.138509
      dyz     :     0.136615
      dx2y2   :     0.004660
      dxy     :     0.005495
      f0      :     0.025662  f :     0.066475
      f+1     :     0.019403
      f-1     :     0.019227
      f+2     :     0.000798
      f-2     :     0.000866
      f+3     :     0.000259
      f-3     :     0.000259
  5 N s       :     3.307077  s :     3.307077
      pz      :     1.464450  p :     3.479699
      px      :     1.008776
      py      :     1.006473
      dz2     :     0.053417  d :     0.137668
      dxz     :     0.037341
      dyz     :     0.037187
      dx2y2   :     0.004865
      dxy     :     0.004858
      f0      :     0.007385  f :     0.019267
      f+1     :     0.005215
      f-1     :     0.005177
      f+2     :     0.000471
      f-2     :     0.000468
      f+3     :     0.000276
      f-3     :     0.000276
  6 C s       :     2.816486  s :     2.816486
      pz      :     1.041077  p :     3.157004
      px      :     1.057495
      py      :     1.058431
      dz2     :     0.074745  d :     0.283971
      dxz     :     0.066225
      dyz     :     0.074919
      dx2y2   :     0.032478
      dxy     :     0.035605
      f0      :     0.007878  f :     0.032001
      f+1     :     0.007254
      f-1     :     0.006453
      f+2     :     0.003047
      f-2     :     0.002696
      f+3     :     0.001742
      f-3     :     0.002931
  7 H s       :     0.785455  s :     0.785455
      pz      :     0.015743  p :     0.065546
      px      :     0.014645
      py      :     0.035158
  8 H s       :     0.788178  s :     0.788178
      pz      :     0.013872  p :     0.065391
      px      :     0.034945
      py      :     0.016573
  9 H s       :     0.780683  s :     0.780683
      pz      :     0.014395  p :     0.065720
      px      :     0.026479
      py      :     0.024846
 10 C s       :     2.839010  s :     2.839010
      pz      :     1.166683  p :     2.871418
      px      :     0.852123
      py      :     0.852612
      dz2     :     0.165281  d :     0.450210
      dxz     :     0.136263
      dyz     :     0.137583
      dx2y2   :     0.005247
      dxy     :     0.005835
      f0      :     0.025637  f :     0.066439
      f+1     :     0.019090
      f-1     :     0.019312
      f+2     :     0.000907
      f-2     :     0.000963
      f+3     :     0.000265
      f-3     :     0.000265
 11 N s       :     3.307095  s :     3.307095
      pz      :     1.461978  p :     3.467659
      px      :     1.002598
      py      :     1.003083
      dz2     :     0.053522  d :     0.138486
      dxz     :     0.037501
      dyz     :     0.037601
      dx2y2   :     0.004920
      dxy     :     0.004943
      f0      :     0.007344  f :     0.019286
      f+1     :     0.005193
      f-1     :     0.005218
      f+2     :     0.000491
      f-2     :     0.000489
      f+3     :     0.000275
      f-3     :     0.000275
 12 C s       :     2.816566  s :     2.816566
      pz      :     1.038869  p :     3.157260
      px      :     1.060055
      py      :     1.058336
      dz2     :     0.074017  d :     0.283334
      dxz     :     0.073615
      dyz     :     0.068480
      dx2y2   :     0.032730
      dxy     :     0.034492
      f0      :     0.007882  f :     0.031793
      f+1     :     0.006477
      f-1     :     0.006931
      f+2     :     0.003094
      f-2     :     0.002809
      f+3     :     0.002136
      f-3     :     0.002465
 13 H s       :     0.785255  s :     0.785255
      pz      :     0.015465  p :     0.065547
      px      :     0.034442
      py      :     0.015639
 14 H s       :     0.782136  s :     0.782136
      pz      :     0.014372  p :     0.065963
      px      :     0.026521
      py      :     0.025069
 15 H s       :     0.786940  s :     0.786940
      pz      :     0.014254  p :     0.065373
      px      :     0.015502
      py      :     0.035616
 16 C s       :     2.839626  s :     2.839626
      pz      :     1.166940  p :     2.869870
      px      :     0.852098
      py      :     0.850832
      dz2     :     0.164843  d :     0.448962
      dxz     :     0.137419
      dyz     :     0.135988
      dx2y2   :     0.004994
      dxy     :     0.005718
      f0      :     0.025647  f :     0.066464
      f+1     :     0.019368
      f-1     :     0.019108
      f+2     :     0.000891
      f-2     :     0.000923
      f+3     :     0.000264
      f-3     :     0.000264
 17 N s       :     3.306664  s :     3.306664
      pz      :     1.463063  p :     3.470548
      px      :     1.004786
      py      :     1.002699
      dz2     :     0.053465  d :     0.138341
      dxz     :     0.037612
      dyz     :     0.037371
      dx2y2   :     0.004934
      dxy     :     0.004960
      f0      :     0.007361  f :     0.019314
      f+1     :     0.005242
      f-1     :     0.005180
      f+2     :     0.000492
      f-2     :     0.000488
      f+3     :     0.000276
      f-3     :     0.000276


                      *****************************
                      * MAYER POPULATION ANALYSIS *
                      *****************************

  NA   - Mulliken gross atomic population
  ZA   - Total nuclear charge
  QA   - Mulliken gross atomic charge
  VA   - Mayer's total valence
  BVA  - Mayer's bonded valence
  FA   - Mayer's free valence

  ATOM       NA         ZA         QA         VA         BVA        FA
  0 C      6.2870     6.0000    -0.2870     3.9359     3.6531     0.2827
  1 H      0.8301     1.0000     0.1699     0.9627     0.9156     0.0471
  2 H      0.8237     1.0000     0.1763     0.9636     0.9171     0.0465
  3 H      0.8370     1.0000     0.1630     0.9632     0.9154     0.0478
  4 C      6.1431     6.0000    -0.1431     4.1351     3.7062     0.4289
  5 N      7.0791     7.0000    -0.0791     3.3375     2.8646     0.4728
  6 C      6.2838     6.0000    -0.2838     3.9411     3.6564     0.2847
  7 H      0.8345     1.0000     0.1655     0.9652     0.9177     0.0475
  8 H      0.8447     1.0000     0.1553     0.9653     0.9171     0.0483
  9 H      0.8165     1.0000     0.1835     0.9606     0.9144     0.0461
 10 C      6.1545     6.0000    -0.1545     4.1181     3.6843     0.4339
 11 N      7.0661     7.0000    -0.0661     3.3291     2.8547     0.4744
 12 C      6.2822     6.0000    -0.2822     3.9420     3.6572     0.2847
 13 H      0.8359     1.0000     0.1641     0.9651     0.9174     0.0477
 14 H      0.8169     1.0000     0.1831     0.9611     0.9151     0.0460
 15 H      0.8422     1.0000     0.1578     0.9653     0.9171     0.0481
 16 C      6.1556     6.0000    -0.1556     4.1315     3.6988     0.4327
 17 N      7.0671     7.0000    -0.0671     3.3328     2.8588     0.4740

  Mayer bond orders larger than 0.100000
B(  0-C ,  1-H ) :   0.9190 B(  0-C ,  2-H ) :   0.9156 B(  0-C ,  3-H ) :   0.9202 
B(  0-C ,  4-C ) :   0.9012 B(  4-C ,  5-N ) :   2.8282 B(  6-C ,  7-H ) :   0.9215 
B(  6-C ,  8-H ) :   0.9253 B(  6-C ,  9-H ) :   0.9121 B(  6-C , 10-C ) :   0.8950 
B( 10-C , 11-N ) :   2.8185 B( 12-C , 13-H ) :   0.9225 B( 12-C , 14-H ) :   0.9112 
B( 12-C , 15-H ) :   0.9221 B( 12-C , 16-C ) :   0.9003 B( 16-C , 17-N ) :   2.8236 



----------------------------------
MP2 DERIVATIVE INTEGRAL GENERATION
----------------------------------


Input Wavefunction Amplitudes       ... 12mecn.remya.etal.2.mol6,7,11-orca.engrad-mp2.def2tzvp.frozencore.mp2tsaa.tmp
Input Correlated Electron Density   ... 12mecn.remya.etal.2.mol6,7,11-orca.engrad-mp2.def2tzvp.frozencore.pmp2re
Input Energy Weighted Density       ... 12mecn.remya.etal.2.mol6,7,11-orca.engrad-mp2.def2tzvp.frozencore.wmp2.tmp
Input SCF Electron Density          ... 12mecn.remya.etal.2.mol6,7,11-orca.engrad-mp2.def2tzvp.frozencore.scfp

One-Electron Terms    ...
                        ... One-Electron Terms done
Prescreening matrices              ... done

Batch handling in the gradient evaluation:
Memory available                      ... 8000.0 MB
Memory per occupied orbital in Q2     ...   20.3 MB
Memory per occupied orbital in Q3     ...    0.1 MB
Total memory requirement per |i>      ...   20.4 MB
Max. Number of orbitals possible      ...    391
Number of orbitals treated per batch  ...     24
Number of batches to be done          ...      1
Batch   0: i=    9 ...    32

---------------------------------------
MP2 TOTAL ENERGY:     -397.444715613 Eh
---------------------------------------

The final MP2 gradient
  0:   0.00208803  -0.00219389  -0.00739037
  1:  -0.00023225   0.00196521   0.00008957
  2:   0.00088247  -0.00241746   0.00020507
  3:  -0.00214441   0.00205479  -0.00091297
  4:  -0.00062936   0.00056906   0.00334751
  5:  -0.00011266   0.00034161   0.00468592
  6:  -0.00056452   0.00129535  -0.00563556
  7:  -0.00059545   0.00391513  -0.00124032
  8:   0.00300441  -0.00144791  -0.00200150
  9:  -0.00214781  -0.00258595  -0.00174053
 10:   0.00019971  -0.00080604   0.00672937
 11:   0.00081946   0.00007765   0.00379458
 12:   0.00114118   0.00153671  -0.00706325
 13:  -0.00329692   0.00085855  -0.00081692
 14:   0.00146784   0.00147739   0.00038487
 15:   0.00075833  -0.00349118  -0.00099305
 16:  -0.00018110  -0.00020526   0.00358707
 17:  -0.00045694  -0.00094377   0.00497049

-----------------------------------
NORM OF THE MP2 GRADIENT:  0.019554
-----------------------------------

-------------------------   --------------------
FINAL SINGLE POINT ENERGY      -397.444715613386
-------------------------   --------------------


                            ***************************************
                            *     ORCA property calculations      *
                            ***************************************

                                    ---------------------
                                    Active property flags
                                    ---------------------
   (+) Dipole Moment


------------------------------------------------------------------------------
                       ORCA ELECTRIC PROPERTIES CALCULATION
------------------------------------------------------------------------------

Dipole Moment Calculation                       ... on
Quadrupole Moment Calculation                   ... off
Polarizability Calculation                      ... off
GBWName                                         ... 12mecn.remya.etal.2.mol6,7,11-orca.engrad-mp2.def2tzvp.frozencore.gbw
Electron density file                           ... 12mecn.remya.etal.2.mol6,7,11-orca.engrad-mp2.def2tzvp.frozencore.scfp
The origin for moment calculation is the CENTER OF MASS  = ( 6.820267,  0.743134  0.536225)

-------------
DIPOLE MOMENT
-------------
                                X             Y             Z
Electronic contribution:     -0.42039       0.17760      -9.26491
Nuclear contribution   :      0.64811      -0.25612      13.91414
                        -----------------------------------------
Total Dipole Moment    :      0.22772      -0.07852       4.64923
                        -----------------------------------------
Magnitude (a.u.)       :      4.65546
Magnitude (Debye)      :     11.83325



--------------------
Rotational spectrum 
--------------------
 
Rotational constants in cm-1:     0.040683     0.016039     0.014690 
Rotational constants in MHz :  1219.660252   480.846443   440.407775 

 Dipole components along the rotational axes: 
x,y,z [a.u.] :    -0.038297    -0.150573    -4.652870 
x,y,z [Debye]:    -0.097343    -0.382727   -11.826655 

 

                         *** MP2 UNRELAXED DENSITY ***

------------------------------------------------------------------------------
                       ORCA ELECTRIC PROPERTIES CALCULATION
------------------------------------------------------------------------------

Dipole Moment Calculation                       ... on
Quadrupole Moment Calculation                   ... off
Polarizability Calculation                      ... off
GBWName                                         ... 12mecn.remya.etal.2.mol6,7,11-orca.engrad-mp2.def2tzvp.frozencore.gbw
Electron density file                           ... 12mecn.remya.etal.2.mol6,7,11-orca.engrad-mp2.def2tzvp.frozencore.pmp2ur
The origin for moment calculation is the CENTER OF MASS  = ( 6.820267,  0.743134  0.536225)

-------------
DIPOLE MOMENT
-------------
                                X             Y             Z
Electronic contribution:     -0.42620       0.17915      -9.37028
Nuclear contribution   :      0.64811      -0.25612      13.91414
                        -----------------------------------------
Total Dipole Moment    :      0.22190      -0.07697       4.54386
                        -----------------------------------------
Magnitude (a.u.)       :      4.54992
Magnitude (Debye)      :     11.56499



--------------------
Rotational spectrum 
--------------------
 
Rotational constants in cm-1:     0.040683     0.016039     0.014690 
Rotational constants in MHz :  1219.660252   480.846443   440.407775 

 Dipole components along the rotational axes: 
x,y,z [a.u.] :    -0.037414    -0.147848    -4.547367 
x,y,z [Debye]:    -0.095099    -0.375801   -11.558488 

 

                           *** MP2 RELAXED DENSITY ***

------------------------------------------------------------------------------
                       ORCA ELECTRIC PROPERTIES CALCULATION
------------------------------------------------------------------------------

Dipole Moment Calculation                       ... on
Quadrupole Moment Calculation                   ... off
Polarizability Calculation                      ... off
GBWName                                         ... 12mecn.remya.etal.2.mol6,7,11-orca.engrad-mp2.def2tzvp.frozencore.gbw
Electron density file                           ... 12mecn.remya.etal.2.mol6,7,11-orca.engrad-mp2.def2tzvp.frozencore.pmp2re
The origin for moment calculation is the CENTER OF MASS  = ( 6.820267,  0.743134  0.536225)

-------------
DIPOLE MOMENT
-------------
                                X             Y             Z
Electronic contribution:     -0.44008       0.18329      -9.64093
Nuclear contribution   :      0.64811      -0.25612      13.91414
                        -----------------------------------------
Total Dipole Moment    :      0.20803      -0.07283       4.27321
                        -----------------------------------------
Magnitude (a.u.)       :      4.27889
Magnitude (Debye)      :     10.87608



--------------------
Rotational spectrum 
--------------------
 
Rotational constants in cm-1:     0.040683     0.016039     0.014690 
Rotational constants in MHz :  1219.660252   480.846443   440.407775 

 Dipole components along the rotational axes: 
x,y,z [a.u.] :    -0.034971    -0.139806    -4.276466 
x,y,z [Debye]:    -0.088889    -0.355359   -10.869913 

 

Timings for individual modules:

Sum of individual times         ...      178.069 sec (=   2.968 min)
GTO integral calculation        ...        1.261 sec (=   0.021 min)   0.7 %
SCF iterations                  ...       38.705 sec (=   0.645 min)  21.7 %
MP2 module                      ...      138.102 sec (=   2.302 min)  77.6 %
                             ****ORCA TERMINATED NORMALLY****
TOTAL RUN TIME: 0 days 0 hours 2 minutes 59 seconds 3 msec
