30
Energy:   -140.68316410
O    0.05570995   0.79564827   1.55327444
H   -0.58101705   1.05813248   0.87202261
C    0.11696311   1.84067288   2.51072177
H    0.83854331   1.52863704   3.27061705
H   -0.84885633   2.01771671   3.00934550
H    0.46512641   2.79241037   2.07972827
O    2.41182307   0.27530436   0.04459528
H    1.71967769   0.48575216   0.68885437
C    3.01667822  -0.94372491   0.44540904
H    3.79373358  -1.16589656  -0.29100791
H    2.30758441  -1.78622076   0.45821691
H    3.49399567  -0.87620408   1.43555364
O    0.59381498   0.07303381  -2.12445835
H    1.36405555   0.16388254  -1.54402813
C    0.43262090  -1.30656894  -2.41298305
H   -0.43907970  -1.39086034  -3.06759608
H    0.24234408  -1.91010077  -1.51169431
H    1.29893120  -1.73457630  -2.94127604
O   -0.31410752  -2.02305310   1.21446340
H   -0.14255153  -1.10119355   1.45770561
C   -1.68615624  -2.12908775   0.86982919
H   -1.86211888  -3.17356237   0.59854499
H   -1.95742235  -1.50174375   0.00632961
H   -2.35562816  -1.87635539   1.70691403
O   -1.52175291   1.25063809  -0.71530396
H   -0.88276161   0.84547571  -1.32024763
C   -2.23341460   2.24050330  -1.44072678
H   -2.94870854   2.68671318  -0.74449655
H   -2.79791034   1.82251150  -2.28890409
H   -1.58011637   3.04211617  -1.81940283
