30
Energy:   -129.66979203
O   -0.67794385   1.87243647   0.63037769
H   -0.25655363   1.50993563   1.42375446
C   -0.93490093   3.24699074   0.86934920
H   -1.40950103   3.63956041  -0.03404938
H   -0.01599443   3.82600083   1.05138078
H   -1.62180120   3.41053635   1.71445167
O    1.15336163   0.70170837   2.42667923
H    1.82146923   0.85790103   1.74282298
C    0.98712092  -0.70143511   2.55351060
H    0.23136649  -0.85954355   3.32766961
H    1.91048921  -1.21230199   2.86844450
H    0.62856542  -1.17281354   1.62506154
O    2.08138196   1.39965031  -0.21078288
H    1.14621402   1.64816529  -0.25687525
C    2.26266837   0.25283375  -1.02593979
H    3.32121779  -0.01351112  -0.96254623
H    2.02060906   0.44043822  -2.08376264
H    1.67215855  -0.61084721  -0.68223835
O   -1.33493613  -0.21482156  -1.13917580
H   -1.25527598   0.54697201  -0.54609226
C   -1.55212706   0.28134460  -2.45035123
H   -1.63955039  -0.58972219  -3.10539703
H   -0.71707075   0.90000321  -2.81465855
H   -2.48104303   0.86676769  -2.53504041
O   -0.04894341  -2.64213715  -0.53420548
H   -0.52711646  -1.84035321  -0.79288736
C   -1.00856274  -3.66361225  -0.31453950
H   -0.45297463  -4.55938845  -0.02403639
H   -1.59106514  -3.90133468  -1.21839586
H   -1.71126185  -3.41942289   0.49747211
