30
Energy:   -140.75455734
O    1.94620616   0.55069508  -0.96259882
H    1.11920721   0.10089467  -1.19101864
C    2.83047576  -0.42042522  -0.42638394
H    3.75672831   0.10312859  -0.17452521
H    3.07379426  -1.21754093  -1.14623114
H    2.44218532  -0.88815241   0.49189659
O   -0.58577607   0.57965364   2.20078571
H   -0.36403120  -0.32827886   1.94600923
C    0.62828384   1.25443858   2.48932962
H    0.36016840   2.27536841   2.77446398
H    1.30177118   1.30858146   1.61969711
H    1.17891906   0.79935633   3.32746942
O   -1.73912598   1.54153452  -0.19878822
H   -1.47945198   1.35072606   0.71476792
C   -1.04915044   2.71197978  -0.60686350
H   -1.35316392   2.91253060  -1.63780499
H    0.04497245   2.58772116  -0.59162489
H   -1.30742894   3.59212613   0.00257226
O   -0.60188866  -0.65152213  -1.49911993
H   -1.12547599   0.09639688  -1.17524225
C   -0.75846075  -0.70855574  -2.90793720
H   -0.16228024  -1.55634900  -3.25621953
H   -0.39084479   0.19799936  -3.41369771
H   -1.80300328  -0.87741008  -3.21321813
O   -0.09912114  -1.93331234   0.97774536
H   -0.23295649  -1.67224568   0.05451431
C   -1.19123277  -2.75644998   1.35493282
H   -1.02451753  -3.04144255   2.39727176
H   -1.25623234  -3.67786031   0.75530343
H   -2.15856944  -2.23358602   1.29451458
