30
Energy:   -126.00621097
O    2.47645935  -2.12896094  -0.46692940
H    2.00904294  -1.28580049  -0.56193264
C    1.62139642  -3.15207700  -0.95132045
H    2.16335679  -4.09477559  -0.83693724
H    1.37199870  -3.02879841  -2.01686281
H    0.68226980  -3.22684065  -0.38103200
O    1.02288219   0.31154514  -0.59469234
H    0.25196430   0.71115025  -1.02413925
C    2.04776456   1.29149574  -0.55171862
H    2.90847454   0.82477201  -0.06506423
H    1.76335549   2.17880781   0.03527891
H    2.36085641   1.62360294  -1.55394396
O   -1.30573063   1.49962074  -1.58681153
H   -1.91523279   1.75474467  -0.87840333
C   -2.08371686   1.02276003  -2.67303207
H   -1.38159904   0.73979538  -3.46198503
H   -2.76239475   1.78925418  -3.07881570
H   -2.67960418   0.13431317  -2.41157880
O    0.48605389  -0.19826692   2.17048954
H    0.69281157  -0.04358115   1.23681569
C    1.37934751  -1.19029409   2.65053367
H    1.13260337  -1.35229020   3.70332035
H    2.43365711  -0.87774605   2.59118441
H    1.27145535  -2.15088403   2.12289404
O   -2.98038294   2.12449452   0.60396473
H   -3.36063744   2.86325409   1.10202505
C   -2.50519519   1.17224890   1.54202584
H   -2.08023782   0.34703598   0.96416766
H   -3.30666748   0.76599070   2.17871554
H   -1.71435114   1.57542925   2.19378395
