
                                 *****************
                                 * O   R   C   A *
                                 *****************

           --- An Ab Initio, DFT and Semiempirical electronic structure package ---

                  #######################################################
                  #                        -***-                        #
                  #          Department of theory and spectroscopy      #
                  #               Directorship: Frank Neese             #
                  #        Max Planck Institute fuer Kohlenforschung    #
                  #                Kaiser Wilhelm Platz 1               #
                  #                 D-45470 Muelheim/Ruhr               #
                  #                      Germany                        #
                  #                                                     #
                  #                  All rights reserved                #
                  #                        -***-                        #
                  #######################################################


                         Program Version 4.2.0 -  RELEASE  -


 With contributions from (in alphabetic order):
   Daniel Aravena         : Magnetic Suceptibility
   Michael Atanasov       : Ab Initio Ligand Field Theory (pilot matlab implementation)
   Alexander A. Auer      : GIAO ZORA, VPT2
   Ute Becker             : Parallelization
   Giovanni Bistoni       : ED, misc. LED, open-shell LED, HFLED
   Martin Brehm           : Molecular dynamics
   Dmytro Bykov           : SCF Hessian
   Vijay G. Chilkuri      : MRCI spin determinant printing, contributions to CSF-ICE
   Dipayan Datta          : RHF DLPNO-CCSD density
   Achintya Kumar Dutta   : EOM-CC, STEOM-CC
   Dmitry Ganyushin       : Spin-Orbit,Spin-Spin,Magnetic field MRCI
   Miquel Garcia          : C-PCM Hessian, Gaussian charge scheme
   Yang Guo               : DLPNO-NEVPT2, CIM, IAO-localization
   Andreas Hansen         : Spin unrestricted coupled pair/coupled cluster methods
   Benjamin Helmich-Paris : CASSCF linear response (MC-RPA)
   Lee Huntington         : MR-EOM, pCC
   Robert Izsak           : Overlap fitted RIJCOSX, COSX-SCS-MP3, EOM
   Christian Kollmar      : KDIIS, OOCD, Brueckner-CCSD(T), CCSD density
   Simone Kossmann        : Meta GGA functionals, TD-DFT gradient, OOMP2, MP2 Hessian
   Martin Krupicka        : AUTO-CI
   Lucas Lang             : DCDCAS
   Dagmar Lenk            : GEPOL surface, SMD
   Dimitrios Liakos       : Extrapolation schemes; Compound Job, initial MDCI parallelization
   Dimitrios Manganas     : Further ROCIS development; embedding schemes
   Dimitrios Pantazis     : SARC Basis sets
   Taras Petrenko         : DFT Hessian,TD-DFT gradient, ASA, ECA, R-Raman, ABS, FL, XAS/XES, NRVS
   Peter Pinski           : DLPNO-MP2, DLPNO-MP2 Gradient
   Christoph Reimann      : Effective Core Potentials
   Marius Retegan         : Local ZFS, SOC
   Christoph Riplinger    : Optimizer, TS searches, QM/MM, DLPNO-CCSD(T), (RO)-DLPNO pert. Triples
   Tobias Risthaus        : Range-separated hybrids, TD-DFT gradient, RPA, STAB
   Michael Roemelt        : Original ROCIS implementation
   Masaaki Saitow         : Open-shell DLPNO-CCSD energy and density
   Barbara Sandhoefer     : DKH picture change effects
   Avijit Sen             : IP-ROCIS
   Kantharuban Sivalingam : CASSCF convergence, NEVPT2, FIC-MRCI
   Bernardo de Souza      : ESD, SOC TD-DFT
   Georgi Stoychev        : AutoAux, RI-MP2 NMR
   Willem Van den Heuvel  : Paramagnetic NMR
   Boris Wezisla          : Elementary symmetry handling
   Frank Wennmohs         : Technical directorship


 We gratefully acknowledge several colleagues who have allowed us to
 interface, adapt or use parts of their codes:
   Stefan Grimme, W. Hujo, H. Kruse,             : VdW corrections, initial TS optimization,
                  C. Bannwarth                     DFT functionals, gCP, sTDA/sTD-DF
   Ed Valeev, F. Pavosevic, A. Kumar             : LibInt (2-el integral package), F12 methods
   Garnet Chan, S. Sharma, J. Yang, R. Olivares  : DMRG
   Ulf Ekstrom                                   : XCFun DFT Library
   Mihaly Kallay                                 : mrcc  (arbitrary order and MRCC methods)
   Andreas Klamt, Michael Diedenhofen            : otool_cosmo (COSMO solvation model)
   Jiri Pittner, Ondrej Demel                    : Mk-CCSD
   Frank Weinhold                                : gennbo (NPA and NBO analysis)
   Christopher J. Cramer and Donald G. Truhlar   : smd solvation model
   Lars Goerigk                                  : TD-DFT with DH, B97 family of functionals
   V. Asgeirsson, H. Jonsson                     : NEB implementation
   FAccTs GmbH                                   : IRC, NEB, NEB-TS, Multilevel, MM, QM/MM, CI optimization
   S Lehtola, MJT Oliveira, MAL Marques          : LibXC Library


 Your calculation uses the libint2 library for the computation of 2-el integrals
 For citations please refer to: http://libint.valeyev.net

 Your ORCA version has been built with support for libXC version: 4.2.3
 For citations please refer to: https://tddft.org/programs/libxc/

 This ORCA versions uses:
   CBLAS   interface :  Fast vector & matrix operations
   LAPACKE interface :  Fast linear algebra routines
   SCALAPACK package :  Parallel linear algebra routines


----- Orbital basis set information -----
Your calculation utilizes the basis: def2-TZVP
   F. Weigend and R. Ahlrichs, Phys. Chem. Chem. Phys. 7, 3297 (2005).

================================================================================
                                        WARNINGS
                       Please study these warnings very carefully!
================================================================================


WARNING: The frozen-core approximation for MP2-gradient calculations is turned on by default.

INFO   : the flag for use of LIBINT has been found!

================================================================================
                                       INPUT FILE
================================================================================
NAME = 12h2o.su.etal.mol0,1,2,5,6,9,10-orca.engrad-mp2.def2tzvp.frozencore.inp
|  1> # 12h2o.su.etal.mol0,1,2,5,6,9,10
|  2> ! MP2 def2-TZVP EnGrad TightSCF
|  3> 
|  4> %pal
|  5>     nprocs 6
|  6> end
|  7> 
|  8> %maxcore 8000
|  9> 
| 10> %scf
| 11>     ConvForced true
| 12> end
| 13> 
| 14> *xyz 0 1
| 15> O   1.794470000   0.923410000   2.768350000
| 16> H   2.338250000   1.359750000   3.430940000
| 17> H   0.879480000   1.303000000   2.865760000
| 18> O  -1.794470000  -0.923410000   2.768350000
| 19> H  -2.338250000  -1.359750000   3.430940000
| 20> H  -0.879480000  -1.303000000   2.865760000
| 21> O   0.923410000  -1.794470000  -2.768350000
| 22> H   1.359750000  -2.338250000  -3.430940000
| 23> H   1.303000000  -0.879480000  -2.865760000
| 24> O   0.885520000  -1.737840000   0.052730000
| 25> H   1.284090000  -0.839590000   0.017130000
| 26> H   1.032320000  -2.090180000  -0.841890000
| 27> O   1.737840000   0.885520000  -0.052730000
| 28> H   2.090180000   1.032320000   0.841890000
| 29> H   0.839590000   1.284090000  -0.017130000
| 30> O   0.741530000  -1.752130000   2.896280000
| 31> H   0.920500000  -2.036450000   1.984040000
| 32> H   1.242140000  -0.921210000   2.984230000
| 33> O  -0.923410000   1.794470000  -2.768350000
| 34> H  -1.359750000   2.338250000  -3.430940000
| 35> H  -1.303000000   0.879480000  -2.865760000
| 36> *
| 37> 
| 38>                          ****END OF INPUT****
================================================================================

                     *******************************
                     * Energy+Gradient Calculation *
                     *******************************

---------------------------------
CARTESIAN COORDINATES (ANGSTROEM)
---------------------------------
  O      1.794470    0.923410    2.768350
  H      2.338250    1.359750    3.430940
  H      0.879480    1.303000    2.865760
  O     -1.794470   -0.923410    2.768350
  H     -2.338250   -1.359750    3.430940
  H     -0.879480   -1.303000    2.865760
  O      0.923410   -1.794470   -2.768350
  H      1.359750   -2.338250   -3.430940
  H      1.303000   -0.879480   -2.865760
  O      0.885520   -1.737840    0.052730
  H      1.284090   -0.839590    0.017130
  H      1.032320   -2.090180   -0.841890
  O      1.737840    0.885520   -0.052730
  H      2.090180    1.032320    0.841890
  H      0.839590    1.284090   -0.017130
  O      0.741530   -1.752130    2.896280
  H      0.920500   -2.036450    1.984040
  H      1.242140   -0.921210    2.984230
  O     -0.923410    1.794470   -2.768350
  H     -1.359750    2.338250   -3.430940
  H     -1.303000    0.879480   -2.865760

----------------------------
CARTESIAN COORDINATES (A.U.)
----------------------------
  NO LB      ZA    FRAG     MASS         X           Y           Z
   0 O     8.0000    0    15.999    3.391057    1.744992    5.231423
   1 H     1.0000    0     1.008    4.418652    2.569555    6.483537
   2 H     1.0000    0     1.008    1.661976    2.462313    5.415502
   3 O     8.0000    0    15.999   -3.391057   -1.744992    5.231423
   4 H     1.0000    0     1.008   -4.418652   -2.569555    6.483537
   5 H     1.0000    0     1.008   -1.661976   -2.462313    5.415502
   6 O     8.0000    0    15.999    1.744992   -3.391057   -5.231423
   7 H     1.0000    0     1.008    2.569555   -4.418652   -6.483537
   8 H     1.0000    0     1.008    2.462313   -1.661976   -5.415502
   9 O     8.0000    0    15.999    1.673390   -3.284042    0.099645
  10 H     1.0000    0     1.008    2.426578   -1.586595    0.032371
  11 H     1.0000    0     1.008    1.950802   -3.949868   -1.590942
  12 O     8.0000    0    15.999    3.284042    1.673390   -0.099645
  13 H     1.0000    0     1.008    3.949868    1.950802    1.590942
  14 H     1.0000    0     1.008    1.586595    2.426578   -0.032371
  15 O     8.0000    0    15.999    1.401289   -3.311046    5.473176
  16 H     1.0000    0     1.008    1.739493   -3.848333    3.749292
  17 H     1.0000    0     1.008    2.347304   -1.740835    5.639377
  18 O     8.0000    0    15.999   -1.744992    3.391057   -5.231423
  19 H     1.0000    0     1.008   -2.569555    4.418652   -6.483537
  20 H     1.0000    0     1.008   -2.462313    1.661976   -5.415502

--------------------------------
INTERNAL COORDINATES (ANGSTROEM)
--------------------------------
 O      0   0   0     0.000000000000     0.00000000     0.00000000
 H      1   0   0     0.961828878803     0.00000000     0.00000000
 H      1   2   0     0.995381322057   106.21731035     0.00000000
 O      3   1   2     3.480861789658   117.35405144   223.81249033
 H      4   3   1     0.961828878803   134.84484566    98.22461471
 H      4   3   1     0.995381322057    62.29205096    12.66575463
 O      6   4   3     5.935920367146   102.58474291   273.48279218
 H      7   6   4     0.961828878803   146.97742434   224.01286022
 H      7   6   4     0.995381322057    97.62005672    87.72090689
 O      7   6   4     2.821902722526    17.32744736   169.52589616
 H     10   7   6     0.983350632989    88.66470709   258.45499027
 H     10   7   6     0.972645187106    21.75017499   124.29821266
 O     11  10   7     1.785153773264   170.81379649    89.95043540
 H     13  11  10     0.972645187106   101.65007623   109.44492584
 H     13  11  10     0.983350632989    99.09581498     3.33484705
 O      6   4   3     1.682356278379   171.61043709   328.33166207
 H     16   6   4     0.972136791249   103.79460456   289.35412162
 H     16   6   4     0.974050112161   105.61118924    38.30604821
 O     15  13  11     3.307244809929   121.29016850   272.43949443
 H     19  15  13     0.961828878803   154.44172724   245.98243842
 H     19  15  13     0.995381322057    98.21214728    83.07585586

---------------------------
INTERNAL COORDINATES (A.U.)
---------------------------
 O      0   0   0     0.000000000000     0.00000000     0.00000000
 H      1   0   0     1.817593168635     0.00000000     0.00000000
 H      1   2   0     1.880998097508   106.21731035     0.00000000
 O      3   1   2     6.577875492484   117.35405144   223.81249033
 H      4   3   1     1.817593168635   134.84484566    98.22461471
 H      4   3   1     1.880998097508    62.29205096    12.66575463
 O      6   4   3    11.217263846671   102.58474291   273.48279218
 H      7   6   4     1.817593168635   146.97742434   224.01286022
 H      7   6   4     1.880998097508    97.62005672    87.72090689
 O      7   6   4     5.332623322141    17.32744736   169.52589616
 H     10   7   6     1.858263389967    88.66470709   258.45499027
 H     10   7   6     1.838033029106    21.75017499   124.29821266
 O     11  10   7     3.373451738406   170.81379649    89.95043540
 H     13  11  10     1.838033029106   101.65007623   109.44492584
 H     13  11  10     1.858263389967    99.09581498     3.33484705
 O      6   4   3     3.179192625819   171.61043709   328.33166207
 H     16   6   4     1.837072300170   103.79460456   289.35412162
 H     16   6   4     1.840687952699   105.61118924    38.30604821
 O     15  13  11     6.249786948598   121.29016850   272.43949443
 H     19  15  13     1.817593168635   154.44172724   245.98243842
 H     19  15  13     1.880998097508    98.21214728    83.07585586

---------------------
BASIS SET INFORMATION
---------------------
There are 2 groups of distinct atoms

 Group   1 Type O   : 11s6p2d1f contracted to 5s3p2d1f pattern {62111/411/11/1}
 Group   2 Type H   : 5s1p contracted to 3s1p pattern {311/1}

Atom   0O    basis set group =>   1
Atom   1H    basis set group =>   2
Atom   2H    basis set group =>   2
Atom   3O    basis set group =>   1
Atom   4H    basis set group =>   2
Atom   5H    basis set group =>   2
Atom   6O    basis set group =>   1
Atom   7H    basis set group =>   2
Atom   8H    basis set group =>   2
Atom   9O    basis set group =>   1
Atom  10H    basis set group =>   2
Atom  11H    basis set group =>   2
Atom  12O    basis set group =>   1
Atom  13H    basis set group =>   2
Atom  14H    basis set group =>   2
Atom  15O    basis set group =>   1
Atom  16H    basis set group =>   2
Atom  17H    basis set group =>   2
Atom  18O    basis set group =>   1
Atom  19H    basis set group =>   2
Atom  20H    basis set group =>   2


           ************************************************************
           *        Program running with 6 parallel MPI-processes     *
           *              working on a common directory               *
           ************************************************************
------------------------------------------------------------------------------
                           ORCA GTO INTEGRAL CALCULATION
------------------------------------------------------------------------------

                         BASIS SET STATISTICS AND STARTUP INFO

 # of primitive gaussian shells          ...  224
 # of primitive gaussian functions       ...  434
 # of contracted shells                  ...  133
 # of contracted basis functions         ...  301
 Highest angular momentum                ...    3
 Maximum contraction depth               ...    6
 Integral package used                   ... LIBINT
 Integral threshhold            Thresh   ...  2.500e-11
 Primitive cut-off              TCut     ...  2.500e-12


------------------------------ INTEGRAL EVALUATION ----------------------------


 * One electron integrals 
 Pre-screening matrix                    ... done
 Shell pair data                         ... done (   0.002 sec)



           ************************************************************
           *        Program running with 6 parallel MPI-processes     *
           *              working on a common directory               *
           ************************************************************
-------------------------------------------------------------------------------
                                 ORCA SCF
-------------------------------------------------------------------------------

------------
SCF SETTINGS
------------
Hamiltonian:
 Ab initio Hamiltonian  Method          .... Hartree-Fock(GTOs)


General Settings:
 Integral files         IntName         .... 12h2o.su.etal.mol0,1,2,5,6,9,10-orca.engrad-mp2.def2tzvp.frozencore
 Hartree-Fock type      HFTyp           .... RHF
 Total Charge           Charge          ....    0
 Multiplicity           Mult            ....    1
 Number of Electrons    NEL             ....   70
 Basis Dimension        Dim             ....  301
 Nuclear Repulsion      ENuc            ....    342.3827036127 Eh

Convergence Acceleration:
 DIIS                   CNVDIIS         .... on
   Start iteration      DIISMaxIt       ....    12
   Startup error        DIISStart       ....  0.200000
   # of expansion vecs  DIISMaxEq       ....     5
   Bias factor          DIISBfac        ....   1.050
   Max. coefficient     DIISMaxC        ....  10.000
 Newton-Raphson         CNVNR           .... off
 SOSCF                  CNVSOSCF        .... on
   Start iteration      SOSCFMaxIt      ....   150
   Startup grad/error   SOSCFStart      ....  0.003300
 Level Shifting         CNVShift        .... on
   Level shift para.    LevelShift      ....    0.2500
   Turn off err/grad.   ShiftErr        ....    0.0010
 Zerner damping         CNVZerner       .... off
 Static damping         CNVDamp         .... on
   Fraction old density DampFac         ....    0.7000
   Max. Damping (<1)    DampMax         ....    0.9800
   Min. Damping (>=0)   DampMin         ....    0.0000
   Turn off err/grad.   DampErr         ....    0.1000
 Fernandez-Rico         CNVRico         .... off

SCF Procedure:
 Maximum # iterations   MaxIter         ....   125
 SCF integral mode      SCFMode         .... Direct
   Integral package                     .... LIBINT
 Reset frequency        DirectResetFreq ....    20
 Integral Threshold     Thresh          ....  2.500e-11 Eh
 Primitive CutOff       TCut            ....  2.500e-12 Eh

Convergence Tolerance:
 Convergence Check Mode ConvCheckMode   .... Total+1el-Energy
 Convergence forced     ConvForced      .... 1
 Energy Change          TolE            ....  1.000e-08 Eh
 1-El. energy change                    ....  1.000e-05 Eh
 Orbital Gradient       TolG            ....  1.000e-05
 Orbital Rotation angle TolX            ....  1.000e-05
 DIIS Error             TolErr          ....  5.000e-07


Diagonalization of the overlap matrix:
Smallest eigenvalue                        ... 4.140e-03
Time for diagonalization                   ...    0.020 sec
Threshold for overlap eigenvalues          ... 1.000e-08
Number of eigenvalues below threshold      ... 0
Time for construction of square roots      ...    0.014 sec
Total time needed                          ...    0.033 sec

-------------------
DFT GRID GENERATION
-------------------

General Integration Accuracy     IntAcc      ...  4.340
Radial Grid Type                 RadialGrid  ... Gauss-Chebyshev
Angular Grid (max. acc.)         AngularGrid ... Lebedev-110
Angular grid pruning method      GridPruning ... 3 (G Style)
Weight generation scheme         WeightScheme... Becke
Basis function cutoff            BFCut       ...    1.0000e-11
Integration weight cutoff        WCut        ...    1.0000e-14
Grids for H and He will be reduced by one unit

# of grid points (after initial pruning)     ...  23128 (   0.0 sec)
# of grid points (after weights+screening)   ...  21822 (   0.0 sec)
nearest neighbour list constructed           ...    0.0 sec
Grid point re-assignment to atoms done       ...    0.0 sec
Grid point division into batches done        ...    0.0 sec
Reduced shell lists constructed in    0.0 sec

Total number of grid points                  ...    21822
Total number of batches                      ...      353
Average number of points per batch           ...       61
Average number of grid points per atom       ...     1039
Average number of shells per batch           ...    62.07 (46.67%)
Average number of basis functions per batch  ...   123.87 (41.15%)
Average number of large shells per batch     ...    41.60 (67.02%)
Average number of large basis fcns per batch ...    81.07 (65.45%)
Maximum spatial batch extension              ...  14.53, 15.25, 13.03 au
Average spatial batch extension              ...   0.62,  0.67,  0.60 au

Time for grid setup =    0.069 sec

------------------------------
INITIAL GUESS: MODEL POTENTIAL
------------------------------
Loading Hartree-Fock densities                     ... done
Calculating cut-offs                               ... done
Setting up the integral package                    ... done
Initializing the effective Hamiltonian             ... done
Starting the Coulomb interaction                   ... done (   0.0 sec)
Reading the grid                                   ... done
Mapping shells                                     ... done
Starting the XC term evaluation                    ... done (   0.0 sec)
Transforming the Hamiltonian                       ... done (   0.0 sec)
Diagonalizing the Hamiltonian                      ... done (   0.0 sec)
Back transforming the eigenvectors                 ... done (   0.0 sec)
Now organizing SCF variables                       ... done
                      ------------------
                      INITIAL GUESS DONE (   0.2 sec)
                      ------------------
--------------
SCF ITERATIONS
--------------
ITER       Energy         Delta-E        Max-DP      RMS-DP      [F,P]     Damp
               ***  Starting incremental Fock matrix formation  ***
  0   -531.8072008673   0.000000000000 0.04412671  0.00089879  0.3495932 0.7000
  1   -532.0528653978  -0.245664530575 0.02937210  0.00062213  0.2167559 0.7000
                               ***Turning on DIIS***
  2   -532.1827688768  -0.129903478978 0.01644354  0.00034694  0.1637923 0.7000
  3   -533.3807767004  -1.198007823614 0.00750692  0.00015839  0.1218442 0.7000
  4   -533.1396756106   0.241101089875 0.01703109  0.00036729  0.0862028 0.0000
  5   -532.4828370618   0.656838548758 0.00227717  0.00005924  0.0052311 0.0000
                      *** Initiating the SOSCF procedure ***
                           *** Shutting down DIIS ***
                      *** Re-Reading the Fockian *** 
                      *** Removing any level shift *** 
ITER      Energy       Delta-E        Grad      Rot      Max-DP    RMS-DP
  6   -532.44575693   0.0370801327  0.000807  0.000807  0.001474  0.000036
               *** Restarting incremental Fock matrix formation ***
  7   -532.43347801   0.0122789167  0.000284  0.000389  0.000693  0.000016
  8   -532.43348867  -0.0000106598  0.000182  0.000320  0.000546  0.000013
  9   -532.43349124  -0.0000025700  0.000097  0.000052  0.000113  0.000002
 10   -532.43349145  -0.0000002127  0.000012  0.000008  0.000019  0.000000
 11   -532.43349146  -0.0000000045  0.000003  0.000003  0.000006  0.000000
                  ***Gradient check signals convergence***
              ***Rediagonalizing the Fockian in SOSCF/NRSCF***

               *****************************************************
               *                     SUCCESS                       *
               *           SCF CONVERGED AFTER  12 CYCLES          *
               *****************************************************


----------------
TOTAL SCF ENERGY
----------------

Total Energy       :         -532.43349146 Eh          -14488.25187 eV

Components:
Nuclear Repulsion  :          342.38270361 Eh            9316.70702 eV
Electronic Energy  :         -874.81619507 Eh          -23804.95889 eV
One Electron Energy:        -1418.35803665 Eh          -38595.48433 eV
Two Electron Energy:          543.54184158 Eh           14790.52545 eV

Virial components:
Potential Energy   :        -1064.11060088 Eh          -28955.92154 eV
Kinetic Energy     :          531.67710942 Eh           14467.66967 eV
Virial Ratio       :            2.00142263


---------------
SCF CONVERGENCE
---------------

  Last Energy change         ...   -7.4920e-11  Tolerance :   1.0000e-08
  Last MAX-Density change    ...    1.7576e-06  Tolerance :   1.0000e-07
  Last RMS-Density change    ...    3.3792e-08  Tolerance :   5.0000e-09
  Last Orbital Gradient      ...    1.2006e-06  Tolerance :   1.0000e-05
  Last Orbital Rotation      ...    7.8160e-07  Tolerance :   1.0000e-05

             **** THE GBW FILE WAS UPDATED (12h2o.su.etal.mol0,1,2,5,6,9,10-orca.engrad-mp2.def2tzvp.frozencore.gbw) ****
             **** DENSITY FILE WAS UPDATED (12h2o.su.etal.mol0,1,2,5,6,9,10-orca.engrad-mp2.def2tzvp.frozencore.scfp) ****
             **** ENERGY FILE WAS UPDATED (12h2o.su.etal.mol0,1,2,5,6,9,10-orca.engrad-mp2.def2tzvp.frozencore.en.tmp) ****
             **** THE GBW FILE WAS UPDATED (12h2o.su.etal.mol0,1,2,5,6,9,10-orca.engrad-mp2.def2tzvp.frozencore.gbw) ****
             **** DENSITY FILE WAS UPDATED (12h2o.su.etal.mol0,1,2,5,6,9,10-orca.engrad-mp2.def2tzvp.frozencore.scfp) ****
----------------
ORBITAL ENERGIES
----------------

  NO   OCC          E(Eh)            E(eV) 
   0   2.0000     -20.615216      -560.9686 
   1   2.0000     -20.579899      -560.0075 
   2   2.0000     -20.566330      -559.6383 
   3   2.0000     -20.565398      -559.6129 
   4   2.0000     -20.528456      -558.6077 
   5   2.0000     -20.510191      -558.1107 
   6   2.0000     -20.496421      -557.7360 
   7   2.0000      -1.395716       -37.9794 
   8   2.0000      -1.357862       -36.9493 
   9   2.0000      -1.349130       -36.7117 
  10   2.0000      -1.341621       -36.5074 
  11   2.0000      -1.322379       -35.9837 
  12   2.0000      -1.294928       -35.2368 
  13   2.0000      -1.277636       -34.7662 
  14   2.0000      -0.760935       -20.7061 
  15   2.0000      -0.724672       -19.7193 
  16   2.0000      -0.713789       -19.4232 
  17   2.0000      -0.709526       -19.3072 
  18   2.0000      -0.691336       -18.8122 
  19   2.0000      -0.675923       -18.3928 
  20   2.0000      -0.663638       -18.0585 
  21   2.0000      -0.635849       -17.3023 
  22   2.0000      -0.601203       -16.3596 
  23   2.0000      -0.590940       -16.0803 
  24   2.0000      -0.578681       -15.7467 
  25   2.0000      -0.577800       -15.7227 
  26   2.0000      -0.547930       -14.9099 
  27   2.0000      -0.545109       -14.8332 
  28   2.0000      -0.521444       -14.1892 
  29   2.0000      -0.513184       -13.9644 
  30   2.0000      -0.509625       -13.8676 
  31   2.0000      -0.496798       -13.5186 
  32   2.0000      -0.469395       -12.7729 
  33   2.0000      -0.461041       -12.5456 
  34   2.0000      -0.447124       -12.1669 
  35   0.0000       0.095525         2.5994 
  36   0.0000       0.110960         3.0194 
  37   0.0000       0.138774         3.7762 
  38   0.0000       0.162195         4.4135 
  39   0.0000       0.183514         4.9937 
  40   0.0000       0.194386         5.2895 
  41   0.0000       0.206730         5.6254 
  42   0.0000       0.212874         5.7926 
  43   0.0000       0.231466         6.2985 
  44   0.0000       0.259988         7.0746 
  45   0.0000       0.275319         7.4918 
  46   0.0000       0.331492         9.0204 
  47   0.0000       0.347281         9.4500 
  48   0.0000       0.364994         9.9320 
  49   0.0000       0.443916        12.0796 
  50   0.0000       0.472459        12.8563 
  51   0.0000       0.497144        13.5280 
  52   0.0000       0.512122        13.9355 
  53   0.0000       0.523273        14.2390 
  54   0.0000       0.538460        14.6523 
  55   0.0000       0.545936        14.8557 
  56   0.0000       0.558211        15.1897 
  57   0.0000       0.562564        15.3082 
  58   0.0000       0.570269        15.5178 
  59   0.0000       0.575654        15.6643 
  60   0.0000       0.584911        15.9162 
  61   0.0000       0.596036        16.2190 
  62   0.0000       0.609005        16.5719 
  63   0.0000       0.621632        16.9155 
  64   0.0000       0.625988        17.0340 
  65   0.0000       0.646324        17.5874 
  66   0.0000       0.654272        17.8036 
  67   0.0000       0.655327        17.8324 
  68   0.0000       0.677578        18.4378 
  69   0.0000       0.696797        18.9608 
  70   0.0000       0.703650        19.1473 
  71   0.0000       0.722574        19.6622 
  72   0.0000       0.730211        19.8701 
  73   0.0000       0.738956        20.1080 
  74   0.0000       0.756238        20.5783 
  75   0.0000       0.764003        20.7896 
  76   0.0000       0.768201        20.9038 
  77   0.0000       0.787166        21.4199 
  78   0.0000       0.808179        21.9917 
  79   0.0000       0.819969        22.3125 
  80   0.0000       0.826341        22.4859 
  81   0.0000       0.832229        22.6461 
  82   0.0000       0.840381        22.8679 
  83   0.0000       0.878168        23.8962 
  84   0.0000       0.921553        25.0767 
  85   0.0000       0.952700        25.9243 
  86   0.0000       0.977509        26.5994 
  87   0.0000       1.003927        27.3183 
  88   0.0000       1.048776        28.5386 
  89   0.0000       1.071890        29.1676 
  90   0.0000       1.178675        32.0734 
  91   0.0000       1.365854        37.1668 
  92   0.0000       1.378544        37.5121 
  93   0.0000       1.398199        38.0469 
  94   0.0000       1.400670        38.1142 
  95   0.0000       1.413681        38.4682 
  96   0.0000       1.427748        38.8510 
  97   0.0000       1.429614        38.9018 
  98   0.0000       1.432527        38.9810 
  99   0.0000       1.455410        39.6037 
 100   0.0000       1.479763        40.2664 
 101   0.0000       1.492502        40.6130 
 102   0.0000       1.509037        41.0630 
 103   0.0000       1.522640        41.4331 
 104   0.0000       1.537175        41.8287 
 105   0.0000       1.551836        42.2276 
 106   0.0000       1.567659        42.6582 
 107   0.0000       1.585456        43.1425 
 108   0.0000       1.606179        43.7064 
 109   0.0000       1.629838        44.3502 
 110   0.0000       1.650138        44.9025 
 111   0.0000       1.690073        45.9892 
 112   0.0000       1.789125        48.6846 
 113   0.0000       1.805438        49.1285 
 114   0.0000       1.839198        50.0471 
 115   0.0000       1.847300        50.2676 
 116   0.0000       1.861203        50.6459 
 117   0.0000       1.878696        51.1219 
 118   0.0000       1.894802        51.5602 
 119   0.0000       1.897652        51.6377 
 120   0.0000       1.937983        52.7352 
 121   0.0000       1.958259        53.2869 
 122   0.0000       1.968206        53.5576 
 123   0.0000       1.993890        54.2565 
 124   0.0000       2.003478        54.5174 
 125   0.0000       2.016816        54.8803 
 126   0.0000       2.026699        55.1493 
 127   0.0000       2.065917        56.2165 
 128   0.0000       2.093261        56.9605 
 129   0.0000       2.104357        57.2625 
 130   0.0000       2.155510        58.6544 
 131   0.0000       2.182212        59.3810 
 132   0.0000       2.202014        59.9198 
 133   0.0000       2.247898        61.1684 
 134   0.0000       2.289976        62.3134 
 135   0.0000       2.299412        62.5702 
 136   0.0000       2.306773        62.7705 
 137   0.0000       2.313377        62.9502 
 138   0.0000       2.322448        63.1970 
 139   0.0000       2.336767        63.5867 
 140   0.0000       2.340313        63.6831 
 141   0.0000       2.344634        63.8007 
 142   0.0000       2.370234        64.4973 
 143   0.0000       2.384458        64.8844 
 144   0.0000       2.386650        64.9440 
 145   0.0000       2.389043        65.0092 
 146   0.0000       2.411974        65.6332 
 147   0.0000       2.423961        65.9593 
 148   0.0000       2.444970        66.5310 
 149   0.0000       2.473392        67.3044 
 150   0.0000       2.515472        68.4495 
 151   0.0000       2.554985        69.5247 
 152   0.0000       2.569203        69.9116 
 153   0.0000       2.574126        70.0455 
 154   0.0000       2.587619        70.4127 
 155   0.0000       2.603262        70.8384 
 156   0.0000       2.624777        71.4238 
 157   0.0000       2.638771        71.8046 
 158   0.0000       2.656430        72.2851 
 159   0.0000       2.678862        72.8955 
 160   0.0000       2.681586        72.9697 
 161   0.0000       2.702561        73.5404 
 162   0.0000       2.705052        73.6082 
 163   0.0000       2.717583        73.9492 
 164   0.0000       2.731910        74.3390 
 165   0.0000       2.756053        74.9960 
 166   0.0000       2.796348        76.0925 
 167   0.0000       2.841654        77.3253 
 168   0.0000       2.885666        78.5230 
 169   0.0000       2.890367        78.6509 
 170   0.0000       2.920708        79.4765 
 171   0.0000       2.933314        79.8195 
 172   0.0000       2.949391        80.2570 
 173   0.0000       2.970879        80.8417 
 174   0.0000       2.988114        81.3107 
 175   0.0000       2.991854        81.4125 
 176   0.0000       2.997928        81.5778 
 177   0.0000       3.020932        82.2038 
 178   0.0000       3.040143        82.7265 
 179   0.0000       3.048544        82.9551 
 180   0.0000       3.057620        83.2021 
 181   0.0000       3.077345        83.7388 
 182   0.0000       3.111100        84.6573 
 183   0.0000       3.133074        85.2553 
 184   0.0000       3.136138        85.3387 
 185   0.0000       3.155857        85.8752 
 186   0.0000       3.159431        85.9725 
 187   0.0000       3.186229        86.7017 
 188   0.0000       3.239001        88.1377 
 189   0.0000       3.263164        88.7952 
 190   0.0000       3.276166        89.1490 
 191   0.0000       3.335244        90.7566 
 192   0.0000       3.340901        90.9105 
 193   0.0000       3.416398        92.9649 
 194   0.0000       3.480575        94.7113 
 195   0.0000       3.559545        96.8602 
 196   0.0000       3.970692       108.0480 
 197   0.0000       3.980309       108.3097 
 198   0.0000       3.987572       108.5073 
 199   0.0000       4.058837       110.4466 
 200   0.0000       4.113186       111.9255 
 201   0.0000       4.131691       112.4290 
 202   0.0000       4.177124       113.6653 
 203   0.0000       4.269194       116.1707 
 204   0.0000       4.295861       116.8963 
 205   0.0000       4.306862       117.1957 
 206   0.0000       4.310640       117.2985 
 207   0.0000       4.352418       118.4353 
 208   0.0000       4.401980       119.7840 
 209   0.0000       4.447173       121.0137 
 210   0.0000       5.498860       149.6316 
 211   0.0000       5.537111       150.6725 
 212   0.0000       5.538833       150.7193 
 213   0.0000       5.547297       150.9496 
 214   0.0000       5.572334       151.6309 
 215   0.0000       5.592368       152.1761 
 216   0.0000       5.594417       152.2318 
 217   0.0000       5.608740       152.6216 
 218   0.0000       5.623681       153.0281 
 219   0.0000       5.637810       153.4126 
 220   0.0000       5.669661       154.2793 
 221   0.0000       5.698050       155.0518 
 222   0.0000       5.704238       155.2202 
 223   0.0000       5.723629       155.7479 
 224   0.0000       5.762072       156.7940 
 225   0.0000       5.798355       157.7813 
 226   0.0000       5.802109       157.8834 
 227   0.0000       5.810110       158.1011 
 228   0.0000       5.814703       158.2261 
 229   0.0000       5.837530       158.8473 
 230   0.0000       5.846460       159.0903 
 231   0.0000       5.854748       159.3158 
 232   0.0000       5.864489       159.5809 
 233   0.0000       5.868751       159.6968 
 234   0.0000       5.872845       159.8082 
 235   0.0000       5.880046       160.0042 
 236   0.0000       5.889061       160.2495 
 237   0.0000       5.900106       160.5501 
 238   0.0000       5.901974       160.6009 
 239   0.0000       5.911021       160.8471 
 240   0.0000       5.915324       160.9641 
 241   0.0000       5.924126       161.2037 
 242   0.0000       5.944210       161.7502 
 243   0.0000       5.945712       161.7911 
 244   0.0000       5.992425       163.0622 
 245   0.0000       6.380745       173.6289 
 246   0.0000       6.415488       174.5743 
 247   0.0000       6.428816       174.9370 
 248   0.0000       6.462393       175.8506 
 249   0.0000       6.502695       176.9473 
 250   0.0000       6.524295       177.5351 
 251   0.0000       6.538730       177.9279 
 252   0.0000       6.659081       181.2028 
 253   0.0000       6.676557       181.6784 
 254   0.0000       6.695843       182.2031 
 255   0.0000       6.701542       182.3582 
 256   0.0000       6.735230       183.2749 
 257   0.0000       6.760924       183.9741 
 258   0.0000       6.792028       184.8205 
 259   0.0000       6.818467       185.5399 
 260   0.0000       6.839454       186.1110 
 261   0.0000       6.857884       186.6125 
 262   0.0000       6.866917       186.8583 
 263   0.0000       6.869230       186.9213 
 264   0.0000       6.871119       186.9726 
 265   0.0000       6.886822       187.3999 
 266   0.0000       6.890997       187.5136 
 267   0.0000       6.903922       187.8653 
 268   0.0000       6.909031       188.0043 
 269   0.0000       6.913800       188.1341 
 270   0.0000       6.920887       188.3269 
 271   0.0000       6.931425       188.6137 
 272   0.0000       6.948384       189.0751 
 273   0.0000       6.953361       189.2106 
 274   0.0000       6.979323       189.9170 
 275   0.0000       6.992887       190.2861 
 276   0.0000       7.021776       191.0723 
 277   0.0000       7.037406       191.4976 
 278   0.0000       7.054711       191.9685 
 279   0.0000       7.141791       194.3380 
 280   0.0000       7.343268       199.8205 
 281   0.0000       7.368299       200.5016 
 282   0.0000       7.375032       200.6848 
 283   0.0000       7.395422       201.2397 
 284   0.0000       7.454694       202.8525 
 285   0.0000       7.477086       203.4619 
 286   0.0000       7.478672       203.5050 
 287   0.0000       7.488388       203.7694 
 288   0.0000       7.498755       204.0515 
 289   0.0000       7.539785       205.1680 
 290   0.0000       7.560807       205.7400 
 291   0.0000       7.608233       207.0305 
 292   0.0000       7.611808       207.1278 
 293   0.0000       7.660556       208.4543 
 294   0.0000      44.815158      1219.4825 
 295   0.0000      44.868755      1220.9409 
 296   0.0000      44.890236      1221.5254 
 297   0.0000      44.987979      1224.1851 
 298   0.0000      45.006157      1224.6798 
 299   0.0000      45.056633      1226.0533 
 300   0.0000      45.112989      1227.5868 

                    ********************************
                    * MULLIKEN POPULATION ANALYSIS *
                    ********************************

-----------------------
MULLIKEN ATOMIC CHARGES
-----------------------
   0 O :   -0.749620
   1 H :    0.375320
   2 H :    0.389297
   3 O :   -0.766965
   4 H :    0.325853
   5 H :    0.399899
   6 O :   -0.721882
   7 H :    0.355172
   8 H :    0.375030
   9 O :   -0.776846
  10 H :    0.368954
  11 H :    0.381762
  12 O :   -0.734487
  13 H :    0.390916
  14 H :    0.367166
  15 O :   -0.758495
  16 H :    0.407164
  17 H :    0.370397
  18 O :   -0.711507
  19 H :    0.348866
  20 H :    0.364004
Sum of atomic charges:   -0.0000000

--------------------------------
MULLIKEN REDUCED ORBITAL CHARGES
--------------------------------
  0 O s       :     3.807826  s :     3.807826
      pz      :     1.732156  p :     4.916450
      px      :     1.387607
      py      :     1.796686
      dz2     :     0.003958  d :     0.023872
      dxz     :     0.004446
      dyz     :     0.005438
      dx2y2   :     0.002517
      dxy     :     0.007514
      f0      :     0.000085  f :     0.001471
      f+1     :     0.000334
      f-1     :     0.000178
      f+2     :     0.000062
      f-2     :     0.000347
      f+3     :     0.000093
      f-3     :     0.000373
  1 H s       :     0.579776  s :     0.579776
      pz      :     0.017008  p :     0.044903
      px      :     0.013278
      py      :     0.014617
  2 H s       :     0.570294  s :     0.570294
      pz      :     0.010337  p :     0.040409
      px      :     0.018169
      py      :     0.011903
  3 O s       :     3.808174  s :     3.808174
      pz      :     1.716829  p :     4.933634
      px      :     1.415855
      py      :     1.800950
      dz2     :     0.004132  d :     0.023695
      dxz     :     0.004851
      dyz     :     0.005543
      dx2y2   :     0.002274
      dxy     :     0.006895
      f0      :     0.000088  f :     0.001462
      f+1     :     0.000328
      f-1     :     0.000184
      f+2     :     0.000069
      f-2     :     0.000359
      f+3     :     0.000087
      f-3     :     0.000347
  4 H s       :     0.628003  s :     0.628003
      pz      :     0.017185  p :     0.046144
      px      :     0.013823
      py      :     0.015136
  5 H s       :     0.543108  s :     0.543108
      pz      :     0.010622  p :     0.056993
      px      :     0.032530
      py      :     0.013841
  6 O s       :     3.812124  s :     3.812124
      pz      :     1.716590  p :     4.883445
      px      :     1.801474
      py      :     1.365381
      dz2     :     0.004101  d :     0.024801
      dxz     :     0.005797
      dyz     :     0.004439
      dx2y2   :     0.002492
      dxy     :     0.007973
      f0      :     0.000083  f :     0.001512
      f+1     :     0.000186
      f-1     :     0.000330
      f+2     :     0.000070
      f-2     :     0.000349
      f+3     :     0.000394
      f-3     :     0.000099
  7 H s       :     0.599290  s :     0.599290
      pz      :     0.017104  p :     0.045538
      px      :     0.014936
      py      :     0.013497
  8 H s       :     0.583482  s :     0.583482
      pz      :     0.010623  p :     0.041487
      px      :     0.013003
      py      :     0.017862
  9 O s       :     3.804094  s :     3.804094
      pz      :     1.578505  p :     4.949174
      px      :     1.881119
      py      :     1.489550
      dz2     :     0.009529  d :     0.022168
      dxz     :     0.002308
      dyz     :     0.002402
      dx2y2   :     0.002785
      dxy     :     0.005145
      f0      :     0.000188  f :     0.001409
      f+1     :     0.000119
      f-1     :     0.000421
      f+2     :     0.000078
      f-2     :     0.000036
      f+3     :     0.000450
      f-3     :     0.000118
 10 H s       :     0.577075  s :     0.577075
      pz      :     0.009428  p :     0.053971
      px      :     0.016049
      py      :     0.028494
 11 H s       :     0.568842  s :     0.568842
      pz      :     0.024200  p :     0.049396
      px      :     0.013458
      py      :     0.011738
 12 O s       :     3.803130  s :     3.803130
      pz      :     1.593350  p :     4.904838
      px      :     1.466386
      py      :     1.845102
      dz2     :     0.011418  d :     0.025130
      dxz     :     0.002899
      dyz     :     0.002294
      dx2y2   :     0.003535
      dxy     :     0.004983
      f0      :     0.000152  f :     0.001389
      f+1     :     0.000456
      f-1     :     0.000114
      f+2     :     0.000068
      f-2     :     0.000040
      f+3     :     0.000108
      f-3     :     0.000451
 13 H s       :     0.560652  s :     0.560652
      pz      :     0.024650  p :     0.048431
      px      :     0.010976
      py      :     0.012805
 14 H s       :     0.590247  s :     0.590247
      pz      :     0.009921  p :     0.042587
      px      :     0.018619
      py      :     0.014046
 15 O s       :     3.791889  s :     3.791889
      pz      :     1.583138  p :     4.941297
      px      :     1.785204
      py      :     1.572955
      dz2     :     0.011437  d :     0.023955
      dxz     :     0.002273
      dyz     :     0.001136
      dx2y2   :     0.002368
      dxy     :     0.006740
      f0      :     0.000225  f :     0.001354
      f+1     :     0.000150
      f-1     :     0.000377
      f+2     :     0.000051
      f-2     :     0.000055
      f+3     :     0.000446
      f-3     :     0.000050
 16 H s       :     0.545067  s :     0.545067
      pz      :     0.025272  p :     0.047769
      px      :     0.011639
      py      :     0.010858
 17 H s       :     0.579888  s :     0.579888
      pz      :     0.010256  p :     0.049715
      px      :     0.016045
      py      :     0.023414
 18 O s       :     3.813736  s :     3.813736
      pz      :     1.722645  p :     4.870948
      px      :     1.793282
      py      :     1.355021
      dz2     :     0.004371  d :     0.025275
      dxz     :     0.005838
      dyz     :     0.004808
      dx2y2   :     0.002540
      dxy     :     0.007718
      f0      :     0.000091  f :     0.001548
      f+1     :     0.000193
      f-1     :     0.000345
      f+2     :     0.000070
      f-2     :     0.000360
      f+3     :     0.000391
      f-3     :     0.000098
 19 H s       :     0.605312  s :     0.605312
      pz      :     0.017259  p :     0.045822
      px      :     0.015015
      py      :     0.013548
 20 H s       :     0.593906  s :     0.593906
      pz      :     0.011217  p :     0.042091
      px      :     0.013022
      py      :     0.017851


                     *******************************
                     * LOEWDIN POPULATION ANALYSIS *
                     *******************************

----------------------
LOEWDIN ATOMIC CHARGES
----------------------
   0 O :   -0.297846
   1 H :    0.168314
   2 H :    0.196236
   3 O :   -0.378932
   4 H :    0.144133
   5 H :    0.152359
   6 O :   -0.316838
   7 H :    0.160355
   8 H :    0.188852
   9 O :   -0.354991
  10 H :    0.146698
  11 H :    0.153373
  12 O :   -0.309657
  13 H :    0.156546
  14 H :    0.178151
  15 O :   -0.302395
  16 H :    0.164377
  17 H :    0.149707
  18 O :   -0.341736
  19 H :    0.158283
  20 H :    0.185013

-------------------------------
LOEWDIN REDUCED ORBITAL CHARGES
-------------------------------
  0 O s       :     3.461697  s :     3.461697
      pz      :     1.687089  p :     4.802915
      px      :     1.367551
      py      :     1.748275
      dz2     :     0.005353  d :     0.031184
      dxz     :     0.006626
      dyz     :     0.005305
      dx2y2   :     0.004121
      dxy     :     0.009777
      f0      :     0.000089  f :     0.002051
      f+1     :     0.000444
      f-1     :     0.000270
      f+2     :     0.000033
      f-2     :     0.000596
      f+3     :     0.000089
      f-3     :     0.000530
  1 H s       :     0.667491  s :     0.667491
      pz      :     0.066710  p :     0.164195
      px      :     0.044651
      py      :     0.052834
  2 H s       :     0.654350  s :     0.654350
      pz      :     0.033143  p :     0.149414
      px      :     0.072826
      py      :     0.043445
  3 O s       :     3.468206  s :     3.468206
      pz      :     1.703656  p :     4.879120
      px      :     1.395507
      py      :     1.779956
      dz2     :     0.004288  d :     0.029600
      dxz     :     0.007425
      dyz     :     0.005845
      dx2y2   :     0.003269
      dxy     :     0.008772
      f0      :     0.000074  f :     0.002007
      f+1     :     0.000439
      f-1     :     0.000266
      f+2     :     0.000034
      f-2     :     0.000639
      f+3     :     0.000084
      f-3     :     0.000470
  4 H s       :     0.691522  s :     0.691522
      pz      :     0.065543  p :     0.164345
      px      :     0.045581
      py      :     0.053222
  5 H s       :     0.651435  s :     0.651435
      pz      :     0.033384  p :     0.196207
      px      :     0.115183
      py      :     0.047639
  6 O s       :     3.468579  s :     3.468579
      pz      :     1.681521  p :     4.813923
      px      :     1.774953
      py      :     1.357448
      dz2     :     0.005367  d :     0.032235
      dxz     :     0.005863
      dyz     :     0.006971
      dx2y2   :     0.003782
      dxy     :     0.010252
      f0      :     0.000090  f :     0.002101
      f+1     :     0.000273
      f-1     :     0.000447
      f+2     :     0.000036
      f-2     :     0.000613
      f+3     :     0.000550
      f-3     :     0.000092
  7 H s       :     0.676231  s :     0.676231
      pz      :     0.066421  p :     0.163414
      px      :     0.052846
      py      :     0.044147
  8 H s       :     0.662554  s :     0.662554
      pz      :     0.033285  p :     0.148594
      px      :     0.043529
      py      :     0.071780
  9 O s       :     3.456263  s :     3.456263
      pz      :     1.549266  p :     4.868405
      px      :     1.839737
      py      :     1.479402
      dz2     :     0.013190  d :     0.028379
      dxz     :     0.001547
      dyz     :     0.003740
      dx2y2   :     0.003709
      dxy     :     0.006193
      f0      :     0.000364  f :     0.001944
      f+1     :     0.000183
      f-1     :     0.000687
      f+2     :     0.000042
      f-2     :     0.000042
      f+3     :     0.000559
      f-3     :     0.000066
 10 H s       :     0.667623  s :     0.667623
      pz      :     0.030465  p :     0.185679
      px      :     0.052667
      py      :     0.102546
 11 H s       :     0.674423  s :     0.674423
      pz      :     0.092140  p :     0.172204
      px      :     0.043120
      py      :     0.036944
 12 O s       :     3.463281  s :     3.463281
      pz      :     1.572441  p :     4.812823
      px      :     1.455467
      py      :     1.784915
      dz2     :     0.014431  d :     0.031523
      dxz     :     0.003888
      dyz     :     0.001374
      dx2y2   :     0.005329
      dxy     :     0.006502
      f0      :     0.000332  f :     0.002030
      f+1     :     0.000716
      f-1     :     0.000207
      f+2     :     0.000038
      f-2     :     0.000043
      f+3     :     0.000073
      f-3     :     0.000620
 13 H s       :     0.671206  s :     0.671206
      pz      :     0.093292  p :     0.172248
      px      :     0.036006
      py      :     0.042950
 14 H s       :     0.667476  s :     0.667476
      pz      :     0.030251  p :     0.154373
      px      :     0.074920
      py      :     0.049202
 15 O s       :     3.447035  s :     3.447035
      pz      :     1.549866  p :     4.823357
      px      :     1.728717
      py      :     1.544774
      dz2     :     0.014425  d :     0.029978
      dxz     :     0.001720
      dyz     :     0.001672
      dx2y2   :     0.003520
      dxy     :     0.008642
      f0      :     0.000398  f :     0.002025
      f+1     :     0.000323
      f-1     :     0.000543
      f+2     :     0.000020
      f-2     :     0.000047
      f+3     :     0.000669
      f-3     :     0.000026
 16 H s       :     0.661847  s :     0.661847
      pz      :     0.096034  p :     0.173775
      px      :     0.041220
      py      :     0.036521
 17 H s       :     0.676887  s :     0.676887
      pz      :     0.031639  p :     0.173406
      px      :     0.057842
      py      :     0.083925
 18 O s       :     3.474952  s :     3.474952
      pz      :     1.707004  p :     4.832389
      px      :     1.772328
      py      :     1.353056
      dz2     :     0.004942  d :     0.032270
      dxz     :     0.005915
      dyz     :     0.007224
      dx2y2   :     0.003949
      dxy     :     0.010240
      f0      :     0.000077  f :     0.002125
      f+1     :     0.000277
      f-1     :     0.000461
      f+2     :     0.000036
      f-2     :     0.000624
      f+3     :     0.000556
      f-3     :     0.000093
 19 H s       :     0.678934  s :     0.678934
      pz      :     0.066071  p :     0.162783
      px      :     0.052744
      py      :     0.043968
 20 H s       :     0.667232  s :     0.667232
      pz      :     0.033311  p :     0.147755
      px      :     0.043592
      py      :     0.070852


                      *****************************
                      * MAYER POPULATION ANALYSIS *
                      *****************************

  NA   - Mulliken gross atomic population
  ZA   - Total nuclear charge
  QA   - Mulliken gross atomic charge
  VA   - Mayer's total valence
  BVA  - Mayer's bonded valence
  FA   - Mayer's free valence

  ATOM       NA         ZA         QA         VA         BVA        FA
  0 O      8.7496     8.0000    -0.7496     1.7482     1.7482    -0.0000
  1 H      0.6247     1.0000     0.3753     0.8748     0.8748     0.0000
  2 H      0.6107     1.0000     0.3893     0.8649     0.8649    -0.0000
  3 O      8.7670     8.0000    -0.7670     1.6847     1.6847    -0.0000
  4 H      0.6741     1.0000     0.3259     0.9094     0.9094    -0.0000
  5 H      0.6001     1.0000     0.3999     0.8802     0.8802    -0.0000
  6 O      8.7219     8.0000    -0.7219     1.7634     1.7634    -0.0000
  7 H      0.6448     1.0000     0.3552     0.8888     0.8888    -0.0000
  8 H      0.6250     1.0000     0.3750     0.8741     0.8741    -0.0000
  9 O      8.7768     8.0000    -0.7768     1.6847     1.6847     0.0000
 10 H      0.6310     1.0000     0.3690     0.9018     0.9018     0.0000
 11 H      0.6182     1.0000     0.3818     0.8838     0.8838     0.0000
 12 O      8.7345     8.0000    -0.7345     1.7519     1.7519    -0.0000
 13 H      0.6091     1.0000     0.3909     0.8732     0.8732    -0.0000
 14 H      0.6328     1.0000     0.3672     0.8808     0.8808    -0.0000
 15 O      8.7585     8.0000    -0.7585     1.7258     1.7258    -0.0000
 16 H      0.5928     1.0000     0.4072     0.8656     0.8656     0.0000
 17 H      0.6296     1.0000     0.3704     0.8903     0.8903     0.0000
 18 O      8.7115     8.0000    -0.7115     1.7655     1.7655    -0.0000
 19 H      0.6511     1.0000     0.3489     0.8933     0.8933    -0.0000
 20 H      0.6360     1.0000     0.3640     0.8811     0.8811     0.0000

  Mayer bond orders larger than 0.100000
B(  0-O ,  1-H ) :   0.8660 B(  0-O ,  2-H ) :   0.8496 B(  3-O ,  4-H ) :   0.9034 
B(  3-O ,  5-H ) :   0.8007 B(  6-O ,  7-H ) :   0.8810 B(  6-O ,  8-H ) :   0.8628 
B(  9-O , 10-H ) :   0.8293 B(  9-O , 11-H ) :   0.8534 B( 12-O , 13-H ) :   0.8435 
B( 12-O , 14-H ) :   0.8705 B( 15-O , 16-H ) :   0.8232 B( 15-O , 17-H ) :   0.8612 
B( 18-O , 19-H ) :   0.8875 B( 18-O , 20-H ) :   0.8731 

-------
TIMINGS
-------

Total SCF time: 0 days 0 hours 0 min 15 sec 

Total time                  ....      15.903 sec
Sum of individual times     ....      15.679 sec  ( 98.6%)

Fock matrix formation       ....      14.593 sec  ( 91.8%)
Diagonalization             ....       0.264 sec  (  1.7%)
Density matrix formation    ....       0.021 sec  (  0.1%)
Population analysis         ....       0.028 sec  (  0.2%)
Initial guess               ....       0.149 sec  (  0.9%)
Orbital Transformation      ....       0.000 sec  (  0.0%)
Orbital Orthonormalization  ....       0.000 sec  (  0.0%)
DIIS solution               ....       0.102 sec  (  0.6%)
SOSCF solution              ....       0.453 sec  (  2.8%)


           ************************************************************
           *        Program running with 6 parallel MPI-processes     *
           *              working on a common directory               *
           ************************************************************

------------------------------------------------------------------------------
                                ORCA  MP2 
------------------------------------------------------------------------------

Freezing NCore=14 chemical core electrons
MP2 will be done in the AO integral direct mode
The Q1-step will be done using symmetric double matrices
Dimension of the basis                    ...  301
Memory devoted for MP2                    ... 8000 MB   
Memory needed for all in one shot         ...  523 MB
Number of MOs that can be treated together...   75      
MP2 density construction                  ... relaxed
The MP2 gradient is requested => amplitudes will be stored on disk
Total number of MOs              ...   28
Number of MOs treated per batch  ...    5 
Number of batches necessary      ...    1 
OPERATORS   0/  0 PASS   0
-----------------------------------------------
 MP2 CORRELATION ENERGY   :     -1.807715991 Eh
-----------------------------------------------


---------------------
MP2 DENSITY FORMATION
---------------------

Completing the external part of the density      ... done
Storing the unrelaxed density                    ... done

Calculating G(D)                                 ... done
Completing the Lagrangian                        ... done
Solving the Z-vector equations                   ... 

------------------------------------------------------------------------------
                           ORCA CP-SCF CALCULATION
------------------------------------------------------------------------------

Input orbitals are from        ... 12h2o.su.etal.mol0,1,2,5,6,9,10-orca.engrad-mp2.def2tzvp.frozencore.gbw
Input Perturbation             ... 12h2o.su.etal.mol0,1,2,5,6,9,10-orca.engrad-mp2.def2tzvp.frozencore.pin.tmp
Wavefunction output            ... 12h2o.su.etal.mol0,1,2,5,6,9,10-orca.engrad-mp2.def2tzvp.frozencore.pout.tmp
Perturbation mode              ... Real perturbation (singlet)
Solver                         ... POPLE
Max. number of iterations      ... 128
Convergence tolerance          ... 1.000e-08
Integral handling              ... Direct
Number of perturbations        ... 1
Number of operators            ... 1
Orbital ranges used for CP-SCF:
 Operator 0:  Orbitals   0... 34  to  35...300
Variables per vector in CP-SCF ... 9310
Number of vectors sought       ... 1
     CP-SCF ITERATION   0: 
     CP-SCF ITERATION   1:      0.000867452291
     CP-SCF ITERATION   2:      0.000021967280
     CP-SCF ITERATION   3:      0.000001300793
     CP-SCF ITERATION   4:      0.000000090029
     CP-SCF ITERATION   5:      0.000000007019
                                                 ... done
Finalizing the relaxed density                   ... done
Transforming P to the AO basis                   ... done
Storing the relaxed density                      ... done

------------------------------------
ENERGY WEIGHTED DENSITY FINALIZATION
------------------------------------

Gathering the parts of the W-matrix              ...                                                      done
Forming the Z-density                            ... done
Transforming Z to the AO basis                   ... done
Calculating G(Z)                                 ... done
Finalizing the W-matrix                          ...                                                      done
Transforming W to the AO basis and storing       ... done

                *********************************************
                * UNRELAXED MP2 DENSITY POPULATION ANALYSIS *
                *********************************************

------------------------------------------------------------------------------
                           ORCA POPULATION ANALYSIS
------------------------------------------------------------------------------
Input electron density              ... 12h2o.su.etal.mol0,1,2,5,6,9,10-orca.engrad-mp2.def2tzvp.frozencore.pmp2ur
BaseName (.gbw .S,...)              ... 12h2o.su.etal.mol0,1,2,5,6,9,10-orca.engrad-mp2.def2tzvp.frozencore

                    ********************************
                    * MULLIKEN POPULATION ANALYSIS *
                    ********************************

-----------------------
MULLIKEN ATOMIC CHARGES
-----------------------
   0 O :   -0.743838
   1 H :    0.373097
   2 H :    0.386351
   3 O :   -0.761444
   4 H :    0.323573
   5 H :    0.395212
   6 O :   -0.716580
   7 H :    0.352968
   8 H :    0.372199
   9 O :   -0.770502
  10 H :    0.364503
  11 H :    0.378876
  12 O :   -0.727907
  13 H :    0.387936
  14 H :    0.364474
  15 O :   -0.751445
  16 H :    0.403963
  17 H :    0.367163
  18 O :   -0.706657
  19 H :    0.346739
  20 H :    0.361320
Sum of atomic charges:   -0.0000000

--------------------------------
MULLIKEN REDUCED ORBITAL CHARGES
--------------------------------
  0 O s       :     3.802964  s :     3.802964
      pz      :     1.721102  p :     4.885654
      px      :     1.379694
      py      :     1.784858
      dz2     :     0.009525  d :     0.051179
      dxz     :     0.009849
      dyz     :     0.010948
      dx2y2   :     0.008007
      dxy     :     0.012850
      f0      :     0.000457  f :     0.004041
      f+1     :     0.000696
      f-1     :     0.000546
      f+2     :     0.000432
      f-2     :     0.000712
      f+3     :     0.000465
      f-3     :     0.000733
  1 H s       :     0.580488  s :     0.580488
      pz      :     0.017459  p :     0.046415
      px      :     0.013654
      py      :     0.015303
  2 H s       :     0.571780  s :     0.571780
      pz      :     0.011142  p :     0.041869
      px      :     0.018085
      py      :     0.012641
  3 O s       :     3.803211  s :     3.803211
      pz      :     1.706436  p :     4.903458
      px      :     1.407361
      py      :     1.789662
      dz2     :     0.009604  d :     0.050747
      dxz     :     0.010218
      dyz     :     0.010872
      dx2y2   :     0.007785
      dxy     :     0.012268
      f0      :     0.000456  f :     0.004029
      f+1     :     0.000692
      f-1     :     0.000546
      f+2     :     0.000437
      f-2     :     0.000724
      f+3     :     0.000461
      f-3     :     0.000713
  4 H s       :     0.628524  s :     0.628524
      pz      :     0.017713  p :     0.047903
      px      :     0.014304
      py      :     0.015886
  5 H s       :     0.546139  s :     0.546139
      pz      :     0.011452  p :     0.058650
      px      :     0.032635
      py      :     0.014563
  6 O s       :     3.807316  s :     3.807316
      pz      :     1.705714  p :     4.853584
      px      :     1.790151
      py      :     1.357719
      dz2     :     0.009621  d :     0.051616
      dxz     :     0.011174
      dyz     :     0.009800
      dx2y2   :     0.007839
      dxy     :     0.013181
      f0      :     0.000454  f :     0.004065
      f+1     :     0.000551
      f-1     :     0.000691
      f+2     :     0.000437
      f-2     :     0.000713
      f+3     :     0.000752
      f-3     :     0.000467
  7 H s       :     0.599909  s :     0.599909
      pz      :     0.017584  p :     0.047123
      px      :     0.015649
      py      :     0.013890
  8 H s       :     0.584789  s :     0.584789
      pz      :     0.011451  p :     0.043012
      px      :     0.013771
      py      :     0.017790
  9 O s       :     3.799102  s :     3.799102
      pz      :     1.568483  p :     4.917548
      px      :     1.869021
      py      :     1.480044
      dz2     :     0.015018  d :     0.049853
      dxz     :     0.007982
      dyz     :     0.007914
      dx2y2   :     0.008350
      dxy     :     0.010589
      f0      :     0.000574  f :     0.003999
      f+1     :     0.000494
      f-1     :     0.000793
      f+2     :     0.000443
      f-2     :     0.000404
      f+3     :     0.000806
      f-3     :     0.000485
 10 H s       :     0.579830  s :     0.579830
      pz      :     0.010253  p :     0.055667
      px      :     0.016783
      py      :     0.028632
 11 H s       :     0.570187  s :     0.570187
      pz      :     0.024301  p :     0.050937
      px      :     0.014303
      py      :     0.012333
 12 O s       :     3.798054  s :     3.798054
      pz      :     1.583434  p :     4.873479
      px      :     1.457647
      py      :     1.832398
      dz2     :     0.016649  d :     0.052400
      dxz     :     0.008257
      dyz     :     0.007940
      dx2y2   :     0.009090
      dxy     :     0.010464
      f0      :     0.000539  f :     0.003974
      f+1     :     0.000823
      f-1     :     0.000491
      f+2     :     0.000433
      f-2     :     0.000406
      f+3     :     0.000476
      f-3     :     0.000806
 13 H s       :     0.562112  s :     0.562112
      pz      :     0.024762  p :     0.049952
      px      :     0.011555
      py      :     0.013636
 14 H s       :     0.591362  s :     0.591362
      pz      :     0.010749  p :     0.044164
      px      :     0.018645
      py      :     0.014770
 15 O s       :     3.786717  s :     3.786717
      pz      :     1.573283  p :     4.909123
      px      :     1.772585
      py      :     1.563254
      dz2     :     0.016738  d :     0.051640
      dxz     :     0.007934
      dyz     :     0.006663
      dx2y2   :     0.008104
      dxy     :     0.012201
      f0      :     0.000611  f :     0.003965
      f+1     :     0.000530
      f-1     :     0.000749
      f+2     :     0.000416
      f-2     :     0.000424
      f+3     :     0.000809
      f-3     :     0.000427
 16 H s       :     0.546844  s :     0.546844
      pz      :     0.025291  p :     0.049193
      px      :     0.012412
      py      :     0.011490
 17 H s       :     0.581505  s :     0.581505
      pz      :     0.011061  p :     0.051332
      px      :     0.016636
      py      :     0.023635
 18 O s       :     3.808961  s :     3.808961
      pz      :     1.712205  p :     4.841936
      px      :     1.782112
      py      :     1.347619
      dz2     :     0.009724  d :     0.051674
      dxz     :     0.011124
      dyz     :     0.010051
      dx2y2   :     0.007857
      dxy     :     0.012918
      f0      :     0.000458  f :     0.004086
      f+1     :     0.000555
      f-1     :     0.000704
      f+2     :     0.000435
      f-2     :     0.000722
      f+3     :     0.000747
      f-3     :     0.000465
 19 H s       :     0.605818  s :     0.605818
      pz      :     0.017754  p :     0.047443
      px      :     0.015743
      py      :     0.013946
 20 H s       :     0.595019  s :     0.595019
      pz      :     0.012063  p :     0.043660
      px      :     0.013799
      py      :     0.017798


                     *******************************
                     * LOEWDIN POPULATION ANALYSIS *
                     *******************************

----------------------
LOEWDIN ATOMIC CHARGES
----------------------
   0 O :   -0.293435
   1 H :    0.167158
   2 H :    0.194433
   3 O :   -0.376610
   4 H :    0.142790
   5 H :    0.149780
   6 O :   -0.313232
   7 H :    0.159177
   8 H :    0.187058
   9 O :   -0.351576
  10 H :    0.144081
  11 H :    0.151387
  12 O :   -0.305287
  13 H :    0.154546
  14 H :    0.176476
  15 O :   -0.298266
  16 H :    0.162381
  17 H :    0.147494
  18 O :   -0.338901
  19 H :    0.157183
  20 H :    0.183360

-------------------------------
LOEWDIN REDUCED ORBITAL CHARGES
-------------------------------
  0 O s       :     3.457929  s :     3.457929
      pz      :     1.675591  p :     4.771121
      px      :     1.359323
      py      :     1.736208
      dz2     :     0.011050  d :     0.059570
      dxz     :     0.012242
      dyz     :     0.011098
      dx2y2   :     0.009714
      dxy     :     0.015465
      f0      :     0.000473  f :     0.004815
      f+1     :     0.000855
      f-1     :     0.000657
      f+2     :     0.000409
      f-2     :     0.001004
      f+3     :     0.000474
      f-3     :     0.000944
  1 H s       :     0.665740  s :     0.665740
      pz      :     0.067860  p :     0.167101
      px      :     0.045445
      py      :     0.053796
  2 H s       :     0.653249  s :     0.653249
      pz      :     0.033960  p :     0.152318
      px      :     0.073948
      py      :     0.044411
  3 O s       :     3.464580  s :     3.464580
      pz      :     1.693278  p :     4.849531
      px      :     1.387222
      py      :     1.769031
      dz2     :     0.009840  d :     0.057730
      dxz     :     0.013017
      dyz     :     0.011502
      dx2y2   :     0.008881
      dxy     :     0.014490
      f0      :     0.000452  f :     0.004769
      f+1     :     0.000851
      f-1     :     0.000648
      f+2     :     0.000410
      f-2     :     0.001048
      f+3     :     0.000471
      f-3     :     0.000888
  4 H s       :     0.689464  s :     0.689464
      pz      :     0.066898  p :     0.167746
      px      :     0.046588
      py      :     0.054260
  5 H s       :     0.651611  s :     0.651611
      pz      :     0.034218  p :     0.198608
      px      :     0.115898
      py      :     0.048492
  6 O s       :     3.464816  s :     3.464816
      pz      :     1.670196  p :     4.783428
      px      :     1.763878
      py      :     1.349355
      dz2     :     0.010982  d :     0.060141
      dxz     :     0.011539
      dyz     :     0.012540
      dx2y2   :     0.009254
      dxy     :     0.015826
      f0      :     0.000472  f :     0.004847
      f+1     :     0.000657
      f-1     :     0.000855
      f+2     :     0.000409
      f-2     :     0.001020
      f+3     :     0.000960
      f-3     :     0.000473
  7 H s       :     0.674345  s :     0.674345
      pz      :     0.067656  p :     0.166478
      px      :     0.053840
      py      :     0.044982
  8 H s       :     0.661323  s :     0.661323
      pz      :     0.034122  p :     0.151620
      px      :     0.044503
      py      :     0.072995
  9 O s       :     3.452600  s :     3.452600
      pz      :     1.538714  p :     4.837040
      px      :     1.828228
      py      :     1.470097
      dz2     :     0.019256  d :     0.057204
      dxz     :     0.007158
      dyz     :     0.009302
      dx2y2   :     0.009479
      dxy     :     0.012010
      f0      :     0.000783  f :     0.004732
      f+1     :     0.000574
      f-1     :     0.001129
      f+2     :     0.000415
      f-2     :     0.000417
      f+3     :     0.000971
      f-3     :     0.000444
 10 H s       :     0.667365  s :     0.667365
      pz      :     0.031321  p :     0.188553
      px      :     0.053565
      py      :     0.103667
 11 H s       :     0.673498  s :     0.673498
      pz      :     0.093467  p :     0.175115
      px      :     0.043907
      py      :     0.037741
 12 O s       :     3.459471  s :     3.459471
      pz      :     1.562464  p :     4.781141
      px      :     1.446470
      py      :     1.772207
      dz2     :     0.020280  d :     0.059862
      dxz     :     0.009293
      dyz     :     0.006940
      dx2y2   :     0.011066
      dxy     :     0.012283
      f0      :     0.000749  f :     0.004813
      f+1     :     0.001153
      f-1     :     0.000599
      f+2     :     0.000411
      f-2     :     0.000416
      f+3     :     0.000453
      f-3     :     0.001032
 13 H s       :     0.670357  s :     0.670357
      pz      :     0.094612  p :     0.175096
      px      :     0.036750
      py      :     0.043734
 14 H s       :     0.666047  s :     0.666047
      pz      :     0.031069  p :     0.157477
      px      :     0.076271
      py      :     0.050136
 15 O s       :     3.443323  s :     3.443323
      pz      :     1.540165  p :     4.791394
      px      :     1.716188
      py      :     1.535041
      dz2     :     0.020390  d :     0.058713
      dxz     :     0.007310
      dyz     :     0.007150
      dx2y2   :     0.009218
      dxy     :     0.014645
      f0      :     0.000824  f :     0.004836
      f+1     :     0.000726
      f-1     :     0.000969
      f+2     :     0.000390
      f-2     :     0.000424
      f+3     :     0.001095
      f-3     :     0.000408
 16 H s       :     0.661178  s :     0.661178
      pz      :     0.097202  p :     0.176441
      px      :     0.041988
      py      :     0.037250
 17 H s       :     0.676053  s :     0.676053
      pz      :     0.032441  p :     0.176453
      px      :     0.058825
      py      :     0.085188
 18 O s       :     3.471210  s :     3.471210
      pz      :     1.696589  p :     4.803131
      px      :     1.761383
      py      :     1.345158
      dz2     :     0.010378  d :     0.059706
      dxz     :     0.011483
      dyz     :     0.012686
      dx2y2   :     0.009379
      dxy     :     0.015780
      f0      :     0.000454  f :     0.004855
      f+1     :     0.000659
      f-1     :     0.000867
      f+2     :     0.000408
      f-2     :     0.001029
      f+3     :     0.000965
      f-3     :     0.000473
 19 H s       :     0.676943  s :     0.676943
      pz      :     0.067315  p :     0.165874
      px      :     0.053743
      py      :     0.044817
 20 H s       :     0.665790  s :     0.665790
      pz      :     0.034139  p :     0.150849
      px      :     0.044578
      py      :     0.072131


                      *****************************
                      * MAYER POPULATION ANALYSIS *
                      *****************************

  NA   - Mulliken gross atomic population
  ZA   - Total nuclear charge
  QA   - Mulliken gross atomic charge
  VA   - Mayer's total valence
  BVA  - Mayer's bonded valence
  FA   - Mayer's free valence

  ATOM       NA         ZA         QA         VA         BVA        FA
  0 O      8.7438     8.0000    -0.7438     2.0615     1.6691     0.3924
  1 H      0.6269     1.0000     0.3731     0.8803     0.8358     0.0444
  2 H      0.6136     1.0000     0.3864     0.8710     0.8245     0.0465
  3 O      8.7614     8.0000    -0.7614     1.9991     1.6065     0.3925
  4 H      0.6764     1.0000     0.3236     0.9155     0.8669     0.0487
  5 H      0.6048     1.0000     0.3952     0.8878     0.8422     0.0456
  6 O      8.7166     8.0000    -0.7166     2.0722     1.6824     0.3898
  7 H      0.6470     1.0000     0.3530     0.8945     0.8485     0.0460
  8 H      0.6278     1.0000     0.3722     0.8802     0.8328     0.0474
  9 O      8.7705     8.0000    -0.7705     2.0017     1.6069     0.3948
 10 H      0.6355     1.0000     0.3645     0.9096     0.8614     0.0482
 11 H      0.6211     1.0000     0.3789     0.8897     0.8450     0.0447
 12 O      8.7279     8.0000    -0.7279     2.0627     1.6720     0.3908
 13 H      0.6121     1.0000     0.3879     0.8792     0.8351     0.0441
 14 H      0.6355     1.0000     0.3645     0.8869     0.8396     0.0472
 15 O      8.7514     8.0000    -0.7514     2.0389     1.6485     0.3904
 16 H      0.5960     1.0000     0.4040     0.8716     0.8286     0.0430
 17 H      0.6328     1.0000     0.3672     0.8968     0.8505     0.0463
 18 O      8.7067     8.0000    -0.7067     2.0716     1.6840     0.3875
 19 H      0.6533     1.0000     0.3467     0.8990     0.8529     0.0461
 20 H      0.6387     1.0000     0.3613     0.8871     0.8393     0.0478

  Mayer bond orders larger than 0.100000
B(  0-O ,  1-H ) :   0.8276 B(  0-O ,  2-H ) :   0.8099 B(  3-O ,  4-H ) :   0.8614 
B(  3-O ,  5-H ) :   0.7650 B(  6-O ,  7-H ) :   0.8413 B(  6-O ,  8-H ) :   0.8221 
B(  9-O , 10-H ) :   0.7910 B(  9-O , 11-H ) :   0.8156 B( 12-O , 13-H ) :   0.8063 
B( 12-O , 14-H ) :   0.8299 B( 15-O , 16-H ) :   0.7876 B( 15-O , 17-H ) :   0.8223 
B( 18-O , 19-H ) :   0.8476 B( 18-O , 20-H ) :   0.8318 


                *******************************************
                * RELAXED MP2 DENSITY POPULATION ANALYSIS *
                *******************************************

------------------------------------------------------------------------------
                           ORCA POPULATION ANALYSIS
------------------------------------------------------------------------------
Input electron density              ... 12h2o.su.etal.mol0,1,2,5,6,9,10-orca.engrad-mp2.def2tzvp.frozencore.pmp2re
BaseName (.gbw .S,...)              ... 12h2o.su.etal.mol0,1,2,5,6,9,10-orca.engrad-mp2.def2tzvp.frozencore

                    ********************************
                    * MULLIKEN POPULATION ANALYSIS *
                    ********************************

-----------------------
MULLIKEN ATOMIC CHARGES
-----------------------
   0 O :   -0.721478
   1 H :    0.366272
   2 H :    0.378575
   3 O :   -0.742452
   4 H :    0.317743
   5 H :    0.370479
   6 O :   -0.699048
   7 H :    0.346508
   8 H :    0.364233
   9 O :   -0.741750
  10 H :    0.341977
  11 H :    0.363791
  12 O :   -0.699802
  13 H :    0.373877
  14 H :    0.357321
  15 O :   -0.718901
  16 H :    0.388463
  17 H :    0.351990
  18 O :   -0.692759
  19 H :    0.340553
  20 H :    0.354408
Sum of atomic charges:   -0.0000000

--------------------------------
MULLIKEN REDUCED ORBITAL CHARGES
--------------------------------
  0 O s       :     3.806396  s :     3.806396
      pz      :     1.711802  p :     4.862068
      px      :     1.376624
      py      :     1.773642
      dz2     :     0.009301  d :     0.049046
      dxz     :     0.009261
      dyz     :     0.010691
      dx2y2   :     0.007767
      dxy     :     0.012026
      f0      :     0.000455  f :     0.003967
      f+1     :     0.000677
      f-1     :     0.000537
      f+2     :     0.000431
      f-2     :     0.000691
      f+3     :     0.000463
      f-3     :     0.000712
  1 H s       :     0.586645  s :     0.586645
      pz      :     0.017565  p :     0.047083
      px      :     0.013576
      py      :     0.015942
  2 H s       :     0.579062  s :     0.579062
      pz      :     0.011932  p :     0.042362
      px      :     0.017113
      py      :     0.013317
  3 O s       :     3.803533  s :     3.803533
      pz      :     1.701549  p :     4.886094
      px      :     1.400775
      py      :     1.783769
      dz2     :     0.009406  d :     0.048860
      dxz     :     0.009639
      dyz     :     0.010565
      dx2y2   :     0.007658
      dxy     :     0.011591
      f0      :     0.000454  f :     0.003964
      f+1     :     0.000676
      f-1     :     0.000538
      f+2     :     0.000437
      f-2     :     0.000705
      f+3     :     0.000459
      f-3     :     0.000696
  4 H s       :     0.633540  s :     0.633540
      pz      :     0.017899  p :     0.048717
      px      :     0.014318
      py      :     0.016500
  5 H s       :     0.570750  s :     0.570750
      pz      :     0.012206  p :     0.058771
      px      :     0.031497
      py      :     0.015068
  6 O s       :     3.811721  s :     3.811721
      pz      :     1.696099  p :     4.833975
      px      :     1.784155
      py      :     1.353721
      dz2     :     0.009381  d :     0.049360
      dxz     :     0.010885
      dyz     :     0.009196
      dx2y2   :     0.007593
      dxy     :     0.012304
      f0      :     0.000452  f :     0.003993
      f+1     :     0.000543
      f-1     :     0.000672
      f+2     :     0.000437
      f-2     :     0.000692
      f+3     :     0.000732
      f-3     :     0.000466
  7 H s       :     0.605665  s :     0.605665
      pz      :     0.017749  p :     0.047827
      px      :     0.016255
      py      :     0.013823
  8 H s       :     0.592167  s :     0.592167
      pz      :     0.012295  p :     0.043601
      px      :     0.014516
      py      :     0.016790
  9 O s       :     3.797582  s :     3.797582
      pz      :     1.559042  p :     4.892279
      px      :     1.862513
      py      :     1.470725
      dz2     :     0.014032  d :     0.047957
      dxz     :     0.007989
      dyz     :     0.007644
      dx2y2   :     0.008153
      dxy     :     0.010139
      f0      :     0.000564  f :     0.003932
      f+1     :     0.000488
      f-1     :     0.000764
      f+2     :     0.000443
      f-2     :     0.000403
      f+3     :     0.000787
      f-3     :     0.000483
 10 H s       :     0.601848  s :     0.601848
      pz      :     0.011008  p :     0.056176
      px      :     0.017420
      py      :     0.027748
[...]
      pz      :     0.023586  p :     0.051521
      px      :     0.015203
      py      :     0.012733
 12 O s       :     3.798838  s :     3.798838
      pz      :     1.579470  p :     4.846655
      px      :     1.450816
      py      :     1.816370
      dz2     :     0.015584  d :     0.050407
      dxz     :     0.008019
      dyz     :     0.007999
      dx2y2   :     0.008808
      dxy     :     0.009998
      f0      :     0.000526  f :     0.003901
      f+1     :     0.000795
      f-1     :     0.000485
      f+2     :     0.000433
      f-2     :     0.000405
      f+3     :     0.000474
      f-3     :     0.000784
 13 H s       :     0.575603  s :     0.575603
      pz      :     0.024090  p :     0.050520
      px      :     0.011890
      py      :     0.014540
 14 H s       :     0.597838  s :     0.597838
      pz      :     0.011516  p :     0.044841
      px      :     0.017801
      py      :     0.015524
 15 O s       :     3.783326  s :     3.783326
      pz      :     1.569730  p :     4.881783
      px      :     1.753617
      py      :     1.558436
      dz2     :     0.015630  d :     0.049897
      dxz     :     0.007920
      dyz     :     0.006645
      dx2y2   :     0.008095
      dxy     :     0.011606
      f0      :     0.000595  f :     0.003895
      f+1     :     0.000521
      f-1     :     0.000728
      f+2     :     0.000416
      f-2     :     0.000423
      f+3     :     0.000786
      f-3     :     0.000427
 16 H s       :     0.561985  s :     0.561985
      pz      :     0.024490  p :     0.049552
      px      :     0.013162
      py      :     0.011899
 17 H s       :     0.596078  s :     0.596078
      pz      :     0.011770  p :     0.051932
      px      :     0.017091
      py      :     0.023071
 18 O s       :     3.813640  s :     3.813640
      pz      :     1.706099  p :     4.825737
      px      :     1.775441
      py      :     1.344197
      dz2     :     0.009430  d :     0.049368
      dxz     :     0.010830
      dyz     :     0.009460
      dx2y2   :     0.007593
      dxy     :     0.012054
      f0      :     0.000456  f :     0.004014
      f+1     :     0.000547
      f-1     :     0.000685
      f+2     :     0.000436
      f-2     :     0.000701
      f+3     :     0.000726
      f-3     :     0.000463
 19 H s       :     0.611306  s :     0.611306
      pz      :     0.017888  p :     0.048141
      px      :     0.016364
      py      :     0.013889
 20 H s       :     0.601294  s :     0.601294
      pz      :     0.012938  p :     0.044299
      px      :     0.014565
      py      :     0.016795


                     *******************************
                     * LOEWDIN POPULATION ANALYSIS *
                     *******************************

----------------------
LOEWDIN ATOMIC CHARGES
----------------------
   0 O :   -0.287746
   1 H :    0.168885
   2 H :    0.195122
   3 O :   -0.379005
   4 H :    0.144668
   5 H :    0.141852
   6 O :   -0.312065
   7 H :    0.160995
   8 H :    0.187773
   9 O :   -0.348391
  10 H :    0.137661
  11 H :    0.147779
  12 O :   -0.299011
  13 H :    0.150757
  14 H :    0.177704
  15 O :   -0.290751
  16 H :    0.158151
  17 H :    0.143562
  18 O :   -0.341741
  19 H :    0.159079
  20 H :    0.184722

-------------------------------
LOEWDIN REDUCED ORBITAL CHARGES
-------------------------------
  0 O s       :     3.459586  s :     3.459586
      pz      :     1.670617  p :     4.764785
      px      :     1.364485
      py      :     1.729683
      dz2     :     0.011000  d :     0.058541
      dxz     :     0.011884
      dyz     :     0.011088
      dx2y2   :     0.009526
      dxy     :     0.015043
      f0      :     0.000476  f :     0.004833
      f+1     :     0.000860
      f-1     :     0.000657
      f+2     :     0.000409
      f-2     :     0.001005
      f+3     :     0.000476
      f-3     :     0.000949
  1 H s       :     0.664305  s :     0.664305
      pz      :     0.067815  p :     0.166810
      px      :     0.044683
      py      :     0.054311
  2 H s       :     0.652743  s :     0.652743
      pz      :     0.034601  p :     0.152135
      px      :     0.072471
      py      :     0.045063
  3 O s       :     3.466241  s :     3.466241
      pz      :     1.692893  p :     4.851009
      px      :     1.390733
      py      :     1.767382
      dz2     :     0.009800  d :     0.056948
      dxz     :     0.012632
      dyz     :     0.011406
      dx2y2   :     0.008871
      dxy     :     0.014239
      f0      :     0.000455  f :     0.004808
      f+1     :     0.000863
      f-1     :     0.000649
      f+2     :     0.000411
      f-2     :     0.001049
      f+3     :     0.000476
      f-3     :     0.000905
  4 H s       :     0.687203  s :     0.687203
      pz      :     0.067093  p :     0.168129
      px      :     0.046232
      py      :     0.054803
  5 H s       :     0.659436  s :     0.659436
      pz      :     0.034923  p :     0.198712
      px      :     0.114775
      py      :     0.049014
  6 O s       :     3.466813  s :     3.466813
      pz      :     1.665169  p :     4.781466
      px      :     1.762081
      py      :     1.354216
      dz2     :     0.010899  d :     0.058919
      dxz     :     0.011503
      dyz     :     0.012153
      dx2y2   :     0.009028
      dxy     :     0.015336
      f0      :     0.000476  f :     0.004867
      f+1     :     0.000657
      f-1     :     0.000862
      f+2     :     0.000410
      f-2     :     0.001020
      f+3     :     0.000966
      f-3     :     0.000476
  7 H s       :     0.672590  s :     0.672590
      pz      :     0.067765  p :     0.166415
      px      :     0.054460
      py      :     0.044190
  8 H s       :     0.660644  s :     0.660644
      pz      :     0.034825  p :     0.151583
      px      :     0.045245
      py      :     0.071513
  9 O s       :     3.453196  s :     3.453196
      pz      :     1.536380  p :     4.833834
      px      :     1.825672
      py      :     1.471782
      dz2     :     0.018961  d :     0.056592
      dxz     :     0.007212
      dyz     :     0.009111
      dx2y2   :     0.009434
      dxy     :     0.011874
      f0      :     0.000788  f :     0.004769
      f+1     :     0.000575
      f-1     :     0.001142
      f+2     :     0.000417
      f-2     :     0.000416
      f+3     :     0.000985
      f-3     :     0.000447
 10 H s       :     0.672944  s :     0.672944
      pz      :     0.031786  p :     0.189395
      px      :     0.054316
      py      :     0.103293
 11 H s       :     0.676688  s :     0.676688
      pz      :     0.092832  p :     0.175533
      px      :     0.044816
      py      :     0.037886
 12 O s       :     3.460611  s :     3.460611
      pz      :     1.563541  p :     4.774626
      px      :     1.449215
      py      :     1.761869
      dz2     :     0.019817  d :     0.058942
      dxz     :     0.009086
      dyz     :     0.007017
      dx2y2   :     0.010946
      dxy     :     0.012076
      f0      :     0.000749  f :     0.004832
      f+1     :     0.001161
      f-1     :     0.000600
      f+2     :     0.000413
      f-2     :     0.000415
      f+3     :     0.000455
      f-3     :     0.001039
 13 H s       :     0.673818  s :     0.673818
      pz      :     0.094104  p :     0.175425
      px      :     0.036798
      py      :     0.044523
 14 H s       :     0.664788  s :     0.664788
      pz      :     0.031643  p :     0.157508
      px      :     0.075172
      py      :     0.050693
 15 O s       :     3.443639  s :     3.443639
      pz      :     1.541900  p :     4.784115
      px      :     1.706020
      py      :     1.536194
      dz2     :     0.019974  d :     0.058135
      dxz     :     0.007350
      dyz     :     0.007055
      dx2y2   :     0.009310
      dxy     :     0.014446
      f0      :     0.000828  f :     0.004862
      f+1     :     0.000728
      f-1     :     0.000976
      f+2     :     0.000391
      f-2     :     0.000424
      f+3     :     0.001105
      f-3     :     0.000409
 16 H s       :     0.665270  s :     0.665270
      pz      :     0.096421  p :     0.176579
      px      :     0.042528
      py      :     0.037630
 17 H s       :     0.679283  s :     0.679283
      pz      :     0.033036  p :     0.177155
      px      :     0.059304
      py      :     0.084816
 18 O s       :     3.473213  s :     3.473213
      pz      :     1.695757  p :     4.805328
      px      :     1.759387
      py      :     1.350184
      dz2     :     0.010190  d :     0.058327
      dxz     :     0.011416
      dyz     :     0.012286
      dx2y2   :     0.009140
      dxy     :     0.015295
      f0      :     0.000456  f :     0.004874
      f+1     :     0.000658
      f-1     :     0.000874
      f+2     :     0.000408
      f-2     :     0.001029
      f+3     :     0.000972
      f-3     :     0.000476
 19 H s       :     0.675079  s :     0.675079
      pz      :     0.067427  p :     0.165842
      px      :     0.054356
      py      :     0.044058
 20 H s       :     0.664388  s :     0.664388
      pz      :     0.034877  p :     0.150891
      px      :     0.045357
      py      :     0.070657


                      *****************************
                      * MAYER POPULATION ANALYSIS *
                      *****************************

  NA   - Mulliken gross atomic population
  ZA   - Total nuclear charge
  QA   - Mulliken gross atomic charge
  VA   - Mayer's total valence
  BVA  - Mayer's bonded valence
  FA   - Mayer's free valence

  ATOM       NA         ZA         QA         VA         BVA        FA
  0 O      8.7215     8.0000    -0.7215     2.0999     1.7138     0.3861
  1 H      0.6337     1.0000     0.3663     0.8856     0.8411     0.0444
  2 H      0.6214     1.0000     0.3786     0.8797     0.8334     0.0463
  3 O      8.7425     8.0000    -0.7425     2.0058     1.6180     0.3878
  4 H      0.6823     1.0000     0.3177     0.9190     0.8703     0.0487
  5 H      0.6295     1.0000     0.3705     0.9187     0.8739     0.0448
  6 O      8.6990     8.0000    -0.6990     2.0932     1.7090     0.3842
  7 H      0.6535     1.0000     0.3465     0.8993     0.8533     0.0460
  8 H      0.6358     1.0000     0.3642     0.8881     0.8408     0.0473
  9 O      8.7418     8.0000    -0.7418     2.0276     1.6383     0.3892
 10 H      0.6580     1.0000     0.3420     0.9384     0.8912     0.0471
 11 H      0.6362     1.0000     0.3638     0.9087     0.8643     0.0444
 12 O      8.6998     8.0000    -0.6998     2.1007     1.7161     0.3846
 13 H      0.6261     1.0000     0.3739     0.8988     0.8550     0.0438
 14 H      0.6427     1.0000     0.3573     0.8937     0.8464     0.0472
 15 O      8.7189     8.0000    -0.7189     2.0815     1.6971     0.3843
 16 H      0.6115     1.0000     0.3885     0.8928     0.8502     0.0426
 17 H      0.6480     1.0000     0.3520     0.9178     0.8720     0.0458
 18 O      8.6928     8.0000    -0.6928     2.0779     1.6953     0.3826
 19 H      0.6594     1.0000     0.3406     0.9034     0.8572     0.0462
 20 H      0.6456     1.0000     0.3544     0.8931     0.8453     0.0478

  Mayer bond orders larger than 0.100000
B(  0-O ,  1-H ) :   0.8310 B(  0-O ,  2-H ) :   0.8131 B(  3-O ,  4-H ) :   0.8644 
B(  3-O ,  5-H ) :   0.7673 B(  5-H , 15-O ) :   0.1044 B(  6-O ,  7-H ) :   0.8447 
B(  6-O ,  8-H ) :   0.8259 B(  9-O , 10-H ) :   0.7883 B(  9-O , 11-H ) :   0.8204 
B( 12-O , 13-H ) :   0.8106 B( 12-O , 14-H ) :   0.8328 B( 15-O , 16-H ) :   0.7917 
B( 15-O , 17-H ) :   0.8254 B( 18-O , 19-H ) :   0.8517 B( 18-O , 20-H ) :   0.8359 



----------------------------------
MP2 DERIVATIVE INTEGRAL GENERATION
----------------------------------


Input Wavefunction Amplitudes       ... 12h2o.su.etal.mol0,1,2,5,6,9,10-orca.engrad-mp2.def2tzvp.frozencore.mp2tsaa.tmp
Input Correlated Electron Density   ... 12h2o.su.etal.mol0,1,2,5,6,9,10-orca.engrad-mp2.def2tzvp.frozencore.pmp2re
Input Energy Weighted Density       ... 12h2o.su.etal.mol0,1,2,5,6,9,10-orca.engrad-mp2.def2tzvp.frozencore.wmp2.tmp
Input SCF Electron Density          ... 12h2o.su.etal.mol0,1,2,5,6,9,10-orca.engrad-mp2.def2tzvp.frozencore.scfp

One-Electron Terms    ...
                        ... One-Electron Terms done
Prescreening matrices              ... done

Batch handling in the gradient evaluation:
Memory available                      ... 8000.0 MB
Memory per occupied orbital in Q2     ...   19.4 MB
Memory per occupied orbital in Q3     ...    0.1 MB
Total memory requirement per |i>      ...   19.5 MB
Max. Number of orbitals possible      ...    410
Number of orbitals treated per batch  ...     28
Number of batches to be done          ...      1
Batch   0: i=    7 ...    34

---------------------------------------
MP2 TOTAL ENERGY:     -534.241207451 Eh
---------------------------------------

The final MP2 gradient
  0:   0.02468997  -0.01004645   0.00001259
  1:   0.00008184  -0.00222837  -0.00306128
  2:  -0.02383688   0.00968903  -0.00044442
  3:  -0.00693869  -0.00081530  -0.00215828
  4:  -0.00221520   0.00045159   0.00068834
  5:   0.01372562  -0.00249033   0.00123747
  6:  -0.00860773  -0.02518330   0.00164552
  7:  -0.00194708  -0.00167802   0.00220450
  8:   0.00954213   0.02617616  -0.00129016
  9:  -0.00798104  -0.00252842  -0.00069463
 10:   0.00450543   0.00826725   0.00214165
 11:   0.00396442  -0.00230521  -0.00497916
 12:   0.01396663  -0.00948840  -0.00243289
 13:   0.00206798   0.00078276   0.00191051
 14:  -0.01569109   0.00579280   0.00396604
 15:  -0.00783111  -0.00320861  -0.00343416
 16:   0.00206105   0.00027609   0.00478235
 17:   0.00132961   0.00707039   0.00111387
 18:   0.00653821   0.02730695  -0.00068577
 19:   0.00190890   0.00240504   0.00092778
 20:  -0.00933294  -0.02824565  -0.00144988

-----------------------------------
NORM OF THE MP2 GRADIENT:  0.076139
-----------------------------------

-------------------------   --------------------
FINAL SINGLE POINT ENERGY      -534.241207450722
-------------------------   --------------------


                            ***************************************
                            *     ORCA property calculations      *
                            ***************************************

                                    ---------------------
                                    Active property flags
                                    ---------------------
   (+) Dipole Moment


------------------------------------------------------------------------------
                       ORCA ELECTRIC PROPERTIES CALCULATION
------------------------------------------------------------------------------

Dipole Moment Calculation                       ... on
Quadrupole Moment Calculation                   ... off
Polarizability Calculation                      ... off
GBWName                                         ... 12h2o.su.etal.mol0,1,2,5,6,9,10-orca.engrad-mp2.def2tzvp.frozencore.gbw
Electron density file                           ... 12h2o.su.etal.mol0,1,2,5,6,9,10-orca.engrad-mp2.def2tzvp.frozencore.scfp
The origin for moment calculation is the CENTER OF MASS  = ( 0.918646, -0.678359  0.769431)

-------------
DIPOLE MOMENT
-------------
                                X             Y             Z
Electronic contribution:      0.35007       0.07309      -0.15125
Nuclear contribution   :      0.56521       1.36331      -0.68611
                        -----------------------------------------
Total Dipole Moment    :      0.91528       1.43640      -0.83735
                        -----------------------------------------
Magnitude (a.u.)       :      1.89793
Magnitude (Debye)      :      4.82415



--------------------
Rotational spectrum 
--------------------
 
Rotational constants in cm-1:     0.037814     0.018534     0.017635 
Rotational constants in MHz :  1133.625264   555.645253   528.683015 

 Dipole components along the rotational axes: 
x,y,z [a.u.] :    -1.016880     1.303295    -0.932474 
x,y,z [Debye]:    -2.584704     3.312713    -2.370161 

 

                         *** MP2 UNRELAXED DENSITY ***

------------------------------------------------------------------------------
                       ORCA ELECTRIC PROPERTIES CALCULATION
------------------------------------------------------------------------------

Dipole Moment Calculation                       ... on
Quadrupole Moment Calculation                   ... off
Polarizability Calculation                      ... off
GBWName                                         ... 12h2o.su.etal.mol0,1,2,5,6,9,10-orca.engrad-mp2.def2tzvp.frozencore.gbw
Electron density file                           ... 12h2o.su.etal.mol0,1,2,5,6,9,10-orca.engrad-mp2.def2tzvp.frozencore.pmp2ur
The origin for moment calculation is the CENTER OF MASS  = ( 0.918646, -0.678359  0.769431)

-------------
DIPOLE MOMENT
-------------
                                X             Y             Z
Electronic contribution:      0.34839       0.06162      -0.14803
Nuclear contribution   :      0.56521       1.36331      -0.68611
                        -----------------------------------------
Total Dipole Moment    :      0.91359       1.42492      -0.83414
                        -----------------------------------------
Magnitude (a.u.)       :      1.88702
Magnitude (Debye)      :      4.79643



--------------------
Rotational spectrum 
--------------------
 
Rotational constants in cm-1:     0.037814     0.018534     0.017635 
Rotational constants in MHz :  1133.625264   555.645253   528.683015 

 Dipole components along the rotational axes: 
x,y,z [a.u.] :    -1.012020     1.292421    -0.930760 
x,y,z [Debye]:    -2.572351     3.285072    -2.365803 

 

                           *** MP2 RELAXED DENSITY ***

------------------------------------------------------------------------------
                       ORCA ELECTRIC PROPERTIES CALCULATION
------------------------------------------------------------------------------

Dipole Moment Calculation                       ... on
Quadrupole Moment Calculation                   ... off
Polarizability Calculation                      ... off
GBWName                                         ... 12h2o.su.etal.mol0,1,2,5,6,9,10-orca.engrad-mp2.def2tzvp.frozencore.gbw
Electron density file                           ... 12h2o.su.etal.mol0,1,2,5,6,9,10-orca.engrad-mp2.def2tzvp.frozencore.pmp2re
The origin for moment calculation is the CENTER OF MASS  = ( 0.918646, -0.678359  0.769431)

-------------
DIPOLE MOMENT
-------------
                                X             Y             Z
Electronic contribution:      0.34775       0.06604      -0.15752
Nuclear contribution   :      0.56521       1.36331      -0.68611
                        -----------------------------------------
Total Dipole Moment    :      0.91295       1.42934      -0.84363
                        -----------------------------------------
Magnitude (a.u.)       :      1.89426
Magnitude (Debye)      :      4.81482



--------------------
Rotational spectrum 
--------------------
 
Rotational constants in cm-1:     0.037814     0.018534     0.017635 
Rotational constants in MHz :  1133.625264   555.645253   528.683015 

 Dipole components along the rotational axes: 
x,y,z [a.u.] :    -1.022086     1.295352    -0.930388 
x,y,z [Debye]:    -2.597936     3.292523    -2.364858 

 

Timings for individual modules:

Sum of individual times         ...       97.136 sec (=   1.619 min)
GTO integral calculation        ...        1.080 sec (=   0.018 min)   1.1 %
SCF iterations                  ...       16.828 sec (=   0.280 min)  17.3 %
MP2 module                      ...       79.228 sec (=   1.320 min)  81.6 %
                             ****ORCA TERMINATED NORMALLY****
TOTAL RUN TIME: 0 days 0 hours 1 minutes 38 seconds 39 msec
