7
Energy:   -411.47418447
O    0.51378856   0.36081791   1.35923206
H    0.99719783   0.94034029   1.94804539
H    0.01500488  -0.21168245   1.94206139
O   -0.46730441  -0.36466640  -1.34203268
H   -0.00333397  -0.87557010  -2.00531292
H   -1.14530119   0.10272714  -1.82998299
H    0.07283022   0.05655301  -0.09182263
