37
Energy:  -1033.72429208
O   -2.92378800   0.24168642  -1.20806439
H   -2.58370583   0.90650048  -1.80689512
H   -3.82634527   0.10043492  -1.49384441
O    2.91269601  -0.58949553   0.58447495
H    2.41757078  -1.40707528   0.53303367
H    3.72925003  -0.83055303   1.02192513
O   -2.32982592  -0.61903584   3.13584454
H   -1.58751909  -1.21118556   3.25655547
H   -2.91205746  -0.81112709   3.87092225
O    0.14186869  -1.86678058   3.08427339
H    0.55825341  -2.35668744   3.79339037
H    0.42543438  -2.31236767   2.28597865
O    1.06820696  -2.65051967   0.59051886
H    1.06228476  -3.53474877   0.22400054
H    0.47627508  -2.15292555   0.02638360
O    0.18992908   2.07533567  -0.26421997
H    1.05784989   1.93723939  -0.64352820
H   -0.37650768   2.24579697  -1.01676511
O   -0.41048236  -0.94718804  -0.93732775
H   -0.03070544  -0.65549831  -1.76613318
H   -1.35118261  -0.80352507  -1.04065172
O   -1.78170579   1.07557852   1.12764964
H   -2.08366537   0.54956984   1.86816778
H   -2.35240727   0.81976721   0.40301715
O    0.68924862   0.26541849  -3.18356890
H    1.03849590  -0.11086412  -3.99144858
H    1.45788181   0.60473817  -2.72498736
O    2.55835672   1.26831725  -1.41646279
H    3.34520656   1.79664888  -1.55049586
H    2.82589310   0.59330871  -0.79274843
O    0.69044416   0.51142177   1.77855956
H    0.44935356  -0.18331909   2.39129303
H    1.54773003   0.24891180   1.44332636
O   -1.33282923   2.04910241  -2.56827184
H   -0.68570752   1.48292293  -2.98887396
H   -1.49659274   2.74251392  -3.20748530
H   -0.32593514   1.22194820   0.88823533
