37
Energy:  -1026.20457231
O   -3.50162335  -0.73584831   1.10769545
H   -4.42716191  -0.96311070   1.19692567
H   -3.18967732  -0.64207470   2.00776658
O    2.85341735  -1.35006914  -0.78074004
H    2.08261166  -1.85581529  -0.52323029
H    3.57676220  -1.97534581  -0.73564930
O   -2.08074985  -0.10718056   3.40756546
H   -1.25646694  -0.41878921   3.03381475
H   -2.04665216  -0.37963004   4.32453900
O    0.10946647  -0.55348923   1.83845755
H    1.00034188  -0.20340649   1.83459295
H    0.14062106  -1.29561057   1.23470498
O    0.42256974  -2.47010899  -0.13545902
H    0.09679079  -3.36441760  -0.03391087
H   -0.08720051  -2.10994927  -0.86116634
O    0.39745841   2.07376215   0.13071770
H    0.60071503   2.21493824  -0.79393786
H    1.19663951   1.69512405   0.49701622
O   -0.74298573  -1.08952276  -2.20667228
H    0.06256710  -0.82001169  -2.64789814
H   -1.33122241  -1.34625437  -2.91681194
O   -1.76028709   0.69675017  -0.37306048
H   -1.43989442   0.13000513  -1.07475874
H   -2.45203176   0.18773627   0.04958122
O    1.75879337  -0.37097122  -3.12576895
H    2.27006143  -0.63906606  -3.88928842
H    2.26593059  -0.68226703  -2.37600991
O    2.51370660   0.62963827   1.12551259
H    2.77989562  -0.00461194   0.45985358
H    3.33545390   0.92601021   1.51682691
O   -1.59717855   2.09273039   1.84239672
H   -1.85400563   1.45190172   2.50542788
H   -1.74733749   2.94168039   2.25829099
O    0.92713161   2.18826321  -2.49741087
H    1.06915615   2.82394120  -3.19881971
H    1.28342235   1.36875294  -2.84047307
H   -0.95502158   1.58834947   0.51596840
