
                                 *****************
                                 * O   R   C   A *
                                 *****************

           --- An Ab Initio, DFT and Semiempirical electronic structure package ---

                  #######################################################
                  #                        -***-                        #
                  #          Department of theory and spectroscopy      #
                  #               Directorship: Frank Neese             #
                  #        Max Planck Institute fuer Kohlenforschung    #
                  #                Kaiser Wilhelm Platz 1               #
                  #                 D-45470 Muelheim/Ruhr               #
                  #                      Germany                        #
                  #                                                     #
                  #                  All rights reserved                #
                  #                        -***-                        #
                  #######################################################


                         Program Version 4.2.0 -  RELEASE  -


 With contributions from (in alphabetic order):
   Daniel Aravena         : Magnetic Suceptibility
   Michael Atanasov       : Ab Initio Ligand Field Theory (pilot matlab implementation)
   Alexander A. Auer      : GIAO ZORA, VPT2
   Ute Becker             : Parallelization
   Giovanni Bistoni       : ED, misc. LED, open-shell LED, HFLED
   Martin Brehm           : Molecular dynamics
   Dmytro Bykov           : SCF Hessian
   Vijay G. Chilkuri      : MRCI spin determinant printing, contributions to CSF-ICE
   Dipayan Datta          : RHF DLPNO-CCSD density
   Achintya Kumar Dutta   : EOM-CC, STEOM-CC
   Dmitry Ganyushin       : Spin-Orbit,Spin-Spin,Magnetic field MRCI
   Miquel Garcia          : C-PCM Hessian, Gaussian charge scheme
   Yang Guo               : DLPNO-NEVPT2, CIM, IAO-localization
   Andreas Hansen         : Spin unrestricted coupled pair/coupled cluster methods
   Benjamin Helmich-Paris : CASSCF linear response (MC-RPA)
   Lee Huntington         : MR-EOM, pCC
   Robert Izsak           : Overlap fitted RIJCOSX, COSX-SCS-MP3, EOM
   Christian Kollmar      : KDIIS, OOCD, Brueckner-CCSD(T), CCSD density
   Simone Kossmann        : Meta GGA functionals, TD-DFT gradient, OOMP2, MP2 Hessian
   Martin Krupicka        : AUTO-CI
   Lucas Lang             : DCDCAS
   Dagmar Lenk            : GEPOL surface, SMD
   Dimitrios Liakos       : Extrapolation schemes; Compound Job, initial MDCI parallelization
   Dimitrios Manganas     : Further ROCIS development; embedding schemes
   Dimitrios Pantazis     : SARC Basis sets
   Taras Petrenko         : DFT Hessian,TD-DFT gradient, ASA, ECA, R-Raman, ABS, FL, XAS/XES, NRVS
   Peter Pinski           : DLPNO-MP2, DLPNO-MP2 Gradient
   Christoph Reimann      : Effective Core Potentials
   Marius Retegan         : Local ZFS, SOC
   Christoph Riplinger    : Optimizer, TS searches, QM/MM, DLPNO-CCSD(T), (RO)-DLPNO pert. Triples
   Tobias Risthaus        : Range-separated hybrids, TD-DFT gradient, RPA, STAB
   Michael Roemelt        : Original ROCIS implementation
   Masaaki Saitow         : Open-shell DLPNO-CCSD energy and density
   Barbara Sandhoefer     : DKH picture change effects
   Avijit Sen             : IP-ROCIS
   Kantharuban Sivalingam : CASSCF convergence, NEVPT2, FIC-MRCI
   Bernardo de Souza      : ESD, SOC TD-DFT
   Georgi Stoychev        : AutoAux, RI-MP2 NMR
   Willem Van den Heuvel  : Paramagnetic NMR
   Boris Wezisla          : Elementary symmetry handling
   Frank Wennmohs         : Technical directorship


 We gratefully acknowledge several colleagues who have allowed us to
 interface, adapt or use parts of their codes:
   Stefan Grimme, W. Hujo, H. Kruse,             : VdW corrections, initial TS optimization,
                  C. Bannwarth                     DFT functionals, gCP, sTDA/sTD-DF
   Ed Valeev, F. Pavosevic, A. Kumar             : LibInt (2-el integral package), F12 methods
   Garnet Chan, S. Sharma, J. Yang, R. Olivares  : DMRG
   Ulf Ekstrom                                   : XCFun DFT Library
   Mihaly Kallay                                 : mrcc  (arbitrary order and MRCC methods)
   Andreas Klamt, Michael Diedenhofen            : otool_cosmo (COSMO solvation model)
   Jiri Pittner, Ondrej Demel                    : Mk-CCSD
   Frank Weinhold                                : gennbo (NPA and NBO analysis)
   Christopher J. Cramer and Donald G. Truhlar   : smd solvation model
   Lars Goerigk                                  : TD-DFT with DH, B97 family of functionals
   V. Asgeirsson, H. Jonsson                     : NEB implementation
   FAccTs GmbH                                   : IRC, NEB, NEB-TS, Multilevel, MM, QM/MM, CI optimization
   S Lehtola, MJT Oliveira, MAL Marques          : LibXC Library


 Your calculation uses the libint2 library for the computation of 2-el integrals
 For citations please refer to: http://libint.valeyev.net

 Your ORCA version has been built with support for libXC version: 4.2.3
 For citations please refer to: https://tddft.org/programs/libxc/

 This ORCA versions uses:
   CBLAS   interface :  Fast vector & matrix operations
   LAPACKE interface :  Fast linear algebra routines
   SCALAPACK package :  Parallel linear algebra routines


----- Orbital basis set information -----
Your calculation utilizes the basis: def2-TZVP
   F. Weigend and R. Ahlrichs, Phys. Chem. Chem. Phys. 7, 3297 (2005).

================================================================================
                                        WARNINGS
                       Please study these warnings very carefully!
================================================================================


WARNING: The frozen-core approximation for MP2-gradient calculations is turned on by default.

INFO   : the flag for use of LIBINT has been found!

================================================================================
                                       INPUT FILE
================================================================================
NAME = 12h2o.su.etal.mol2,5,7,8,11-orca.engrad-mp2.def2tzvp.frozencore.inp
|  1> # 12h2o.su.etal.mol2,5,7,8,11
|  2> ! MP2 def2-TZVP EnGrad TightSCF
|  3> 
|  4> %pal
|  5>     nprocs 6
|  6> end
|  7> 
|  8> %maxcore 8000
|  9> 
| 10> %scf
| 11>     ConvForced true
| 12> end
| 13> 
| 14> *xyz 0 1
| 15> O   0.923410000  -1.794470000  -2.768350000
| 16> H   1.359750000  -2.338250000  -3.430940000
| 17> H   1.303000000  -0.879480000  -2.865760000
| 18> O   0.885520000  -1.737840000   0.052730000
| 19> H   1.284090000  -0.839590000   0.017130000
| 20> H   1.032320000  -2.090180000  -0.841890000
| 21> O  -1.737840000  -0.885520000  -0.052730000
| 22> H  -2.090180000  -1.032320000   0.841890000
| 23> H  -0.839590000  -1.284090000  -0.017130000
| 24> O   1.752130000   0.741530000  -2.896280000
| 25> H   2.036450000   0.920500000  -1.984040000
| 26> H   0.921210000   1.242140000  -2.984230000
| 27> O  -0.741530000   1.752130000   2.896280000
| 28> H  -0.920500000   2.036450000   1.984040000
| 29> H  -1.242140000   0.921210000   2.984230000
| 30> *
| 31> 
| 32>                          ****END OF INPUT****
================================================================================

                     *******************************
                     * Energy+Gradient Calculation *
                     *******************************

---------------------------------
CARTESIAN COORDINATES (ANGSTROEM)
---------------------------------
  O      0.923410   -1.794470   -2.768350
  H      1.359750   -2.338250   -3.430940
  H      1.303000   -0.879480   -2.865760
  O      0.885520   -1.737840    0.052730
  H      1.284090   -0.839590    0.017130
  H      1.032320   -2.090180   -0.841890
  O     -1.737840   -0.885520   -0.052730
  H     -2.090180   -1.032320    0.841890
  H     -0.839590   -1.284090   -0.017130
  O      1.752130    0.741530   -2.896280
  H      2.036450    0.920500   -1.984040
  H      0.921210    1.242140   -2.984230
  O     -0.741530    1.752130    2.896280
  H     -0.920500    2.036450    1.984040
  H     -1.242140    0.921210    2.984230

----------------------------
CARTESIAN COORDINATES (A.U.)
----------------------------
  NO LB      ZA    FRAG     MASS         X           Y           Z
   0 O     8.0000    0    15.999    1.744992   -3.391057   -5.231423
   1 H     1.0000    0     1.008    2.569555   -4.418652   -6.483537
   2 H     1.0000    0     1.008    2.462313   -1.661976   -5.415502
   3 O     8.0000    0    15.999    1.673390   -3.284042    0.099645
   4 H     1.0000    0     1.008    2.426578   -1.586595    0.032371
   5 H     1.0000    0     1.008    1.950802   -3.949868   -1.590942
   6 O     8.0000    0    15.999   -3.284042   -1.673390   -0.099645
   7 H     1.0000    0     1.008   -3.949868   -1.950802    1.590942
   8 H     1.0000    0     1.008   -1.586595   -2.426578   -0.032371
   9 O     8.0000    0    15.999    3.311046    1.401289   -5.473176
  10 H     1.0000    0     1.008    3.848333    1.739493   -3.749292
  11 H     1.0000    0     1.008    1.740835    2.347304   -5.639377
  12 O     8.0000    0    15.999   -1.401289    3.311046    5.473176
  13 H     1.0000    0     1.008   -1.739493    3.848333    3.749292
  14 H     1.0000    0     1.008   -2.347304    1.740835    5.639377

--------------------------------
INTERNAL COORDINATES (ANGSTROEM)
--------------------------------
 O      0   0   0     0.000000000000     0.00000000     0.00000000
 H      1   0   0     0.961828878803     0.00000000     0.00000000
 H      1   2   0     0.995381322057   106.21731035     0.00000000
 O      1   2   3     2.821902722526   134.92023192   245.52250503
 H      4   1   2     0.983350632989    88.66470709   117.24500673
 H      4   1   2     0.972645187106    21.75017499   343.08822912
 O      4   1   2     2.760360281485    88.89773968   213.11455730
 H      7   4   1     0.972645187106   105.22009255   163.79109705
 H      7   4   1     0.983350632989     5.92595386    88.14524976
 O      3   1   2     1.682356278379   171.61043709   164.26103839
 H     10   3   1     0.972136791249   103.79460456    70.64587838
 H     10   3   1     0.974050112161   105.61118924   321.69395179
 O      8   7   4     3.713830488471   105.31291199    77.33288225
 H     13   8   7     0.972136791249    68.48990828    34.02125090
 H     13   8   7     0.974050112161    39.07978501   187.38149542

---------------------------
INTERNAL COORDINATES (A.U.)
---------------------------
 O      0   0   0     0.000000000000     0.00000000     0.00000000
 H      1   0   0     1.817593168635     0.00000000     0.00000000
 H      1   2   0     1.880998097508   106.21731035     0.00000000
 O      1   2   3     5.332623322141   134.92023192   245.52250503
 H      4   1   2     1.858263389967    88.66470709   117.24500673
 H      4   1   2     1.838033029106    21.75017499   343.08822912
 O      4   1   2     5.216324962960    88.89773968   213.11455730
 H      7   4   1     1.838033029106   105.22009255   163.79109705
 H      7   4   1     1.858263389967     5.92595386    88.14524976
 O      3   1   2     3.179192625819   171.61043709   164.26103839
 H     10   3   1     1.837072300170   103.79460456    70.64587838
 H     10   3   1     1.840687952699   105.61118924   321.69395179
 O      8   7   4     7.018122531018   105.31291199    77.33288225
 H     13   8   7     1.837072300170    68.48990828    34.02125090
 H     13   8   7     1.840687952699    39.07978501   187.38149542

---------------------
BASIS SET INFORMATION
---------------------
There are 2 groups of distinct atoms

 Group   1 Type O   : 11s6p2d1f contracted to 5s3p2d1f pattern {62111/411/11/1}
 Group   2 Type H   : 5s1p contracted to 3s1p pattern {311/1}

Atom   0O    basis set group =>   1
Atom   1H    basis set group =>   2
Atom   2H    basis set group =>   2
Atom   3O    basis set group =>   1
Atom   4H    basis set group =>   2
Atom   5H    basis set group =>   2
Atom   6O    basis set group =>   1
Atom   7H    basis set group =>   2
Atom   8H    basis set group =>   2
Atom   9O    basis set group =>   1
Atom  10H    basis set group =>   2
Atom  11H    basis set group =>   2
Atom  12O    basis set group =>   1
Atom  13H    basis set group =>   2
Atom  14H    basis set group =>   2


           ************************************************************
           *        Program running with 6 parallel MPI-processes     *
           *              working on a common directory               *
           ************************************************************
------------------------------------------------------------------------------
                           ORCA GTO INTEGRAL CALCULATION
------------------------------------------------------------------------------

                         BASIS SET STATISTICS AND STARTUP INFO

 # of primitive gaussian shells          ...  160
 # of primitive gaussian functions       ...  310
 # of contracted shells                  ...   95
 # of contracted basis functions         ...  215
 Highest angular momentum                ...    3
 Maximum contraction depth               ...    6
 Integral package used                   ... LIBINT
 Integral threshhold            Thresh   ...  2.500e-11
 Primitive cut-off              TCut     ...  2.500e-12


------------------------------ INTEGRAL EVALUATION ----------------------------


 * One electron integrals 
 Pre-screening matrix                    ... done
 Shell pair data                         ... done (   0.001 sec)



           ************************************************************
           *        Program running with 6 parallel MPI-processes     *
           *              working on a common directory               *
           ************************************************************
-------------------------------------------------------------------------------
                                 ORCA SCF
-------------------------------------------------------------------------------

------------
SCF SETTINGS
------------
Hamiltonian:
 Ab initio Hamiltonian  Method          .... Hartree-Fock(GTOs)


General Settings:
 Integral files         IntName         .... 12h2o.su.etal.mol2,5,7,8,11-orca.engrad-mp2.def2tzvp.frozencore
 Hartree-Fock type      HFTyp           .... RHF
 Total Charge           Charge          ....    0
 Multiplicity           Mult            ....    1
 Number of Electrons    NEL             ....   50
 Basis Dimension        Dim             ....  215
 Nuclear Repulsion      ENuc            ....    182.4704788566 Eh

Convergence Acceleration:
 DIIS                   CNVDIIS         .... on
   Start iteration      DIISMaxIt       ....    12
   Startup error        DIISStart       ....  0.200000
   # of expansion vecs  DIISMaxEq       ....     5
   Bias factor          DIISBfac        ....   1.050
   Max. coefficient     DIISMaxC        ....  10.000
 Newton-Raphson         CNVNR           .... off
 SOSCF                  CNVSOSCF        .... on
   Start iteration      SOSCFMaxIt      ....   150
   Startup grad/error   SOSCFStart      ....  0.003300
 Level Shifting         CNVShift        .... on
   Level shift para.    LevelShift      ....    0.2500
   Turn off err/grad.   ShiftErr        ....    0.0010
 Zerner damping         CNVZerner       .... off
 Static damping         CNVDamp         .... on
   Fraction old density DampFac         ....    0.7000
   Max. Damping (<1)    DampMax         ....    0.9800
   Min. Damping (>=0)   DampMin         ....    0.0000
   Turn off err/grad.   DampErr         ....    0.1000
 Fernandez-Rico         CNVRico         .... off

SCF Procedure:
 Maximum # iterations   MaxIter         ....   125
 SCF integral mode      SCFMode         .... Direct
   Integral package                     .... LIBINT
 Reset frequency        DirectResetFreq ....    20
 Integral Threshold     Thresh          ....  2.500e-11 Eh
 Primitive CutOff       TCut            ....  2.500e-12 Eh

Convergence Tolerance:
 Convergence Check Mode ConvCheckMode   .... Total+1el-Energy
 Convergence forced     ConvForced      .... 1
 Energy Change          TolE            ....  1.000e-08 Eh
 1-El. energy change                    ....  1.000e-05 Eh
 Orbital Gradient       TolG            ....  1.000e-05
 Orbital Rotation angle TolX            ....  1.000e-05
 DIIS Error             TolErr          ....  5.000e-07


Diagonalization of the overlap matrix:
Smallest eigenvalue                        ... 4.249e-03
Time for diagonalization                   ...    0.009 sec
Threshold for overlap eigenvalues          ... 1.000e-08
Number of eigenvalues below threshold      ... 0
Time for construction of square roots      ...    0.006 sec
Total time needed                          ...    0.015 sec

-------------------
DFT GRID GENERATION
-------------------

General Integration Accuracy     IntAcc      ...  4.340
Radial Grid Type                 RadialGrid  ... Gauss-Chebyshev
Angular Grid (max. acc.)         AngularGrid ... Lebedev-110
Angular grid pruning method      GridPruning ... 3 (G Style)
Weight generation scheme         WeightScheme... Becke
Basis function cutoff            BFCut       ...    1.0000e-11
Integration weight cutoff        WCut        ...    1.0000e-14
Grids for H and He will be reduced by one unit

# of grid points (after initial pruning)     ...  16520 (   0.0 sec)
# of grid points (after weights+screening)   ...  15789 (   0.0 sec)
nearest neighbour list constructed           ...    0.0 sec
Grid point re-assignment to atoms done       ...    0.0 sec
Grid point division into batches done        ...    0.0 sec
Reduced shell lists constructed in    0.0 sec

Total number of grid points                  ...    15789
Total number of batches                      ...      255
Average number of points per batch           ...       61
Average number of grid points per atom       ...     1053
Average number of shells per batch           ...    50.82 (53.49%)
Average number of basis functions per batch  ...   106.77 (49.66%)
Average number of large shells per batch     ...    37.11 (73.03%)
Average number of large basis fcns per batch ...    75.93 (71.12%)
Maximum spatial batch extension              ...  21.02, 12.83, 12.83 au
Average spatial batch extension              ...   0.80,  0.56,  0.64 au

Time for grid setup =    0.041 sec

------------------------------
INITIAL GUESS: MODEL POTENTIAL
------------------------------
Loading Hartree-Fock densities                     ... done
Calculating cut-offs                               ... done
Setting up the integral package                    ... done
Initializing the effective Hamiltonian             ... done
Starting the Coulomb interaction                   ... done (   0.0 sec)
Reading the grid                                   ... done
Mapping shells                                     ... done
Starting the XC term evaluation                    ... done (   0.0 sec)
Transforming the Hamiltonian                       ... done (   0.0 sec)
Diagonalizing the Hamiltonian                      ... done (   0.0 sec)
Back transforming the eigenvectors                 ... done (   0.0 sec)
Now organizing SCF variables                       ... done
                      ------------------
                      INITIAL GUESS DONE (   0.1 sec)
                      ------------------
--------------
SCF ITERATIONS
--------------
ITER       Energy         Delta-E        Max-DP      RMS-DP      [F,P]     Damp
               ***  Starting incremental Fock matrix formation  ***
  0   -379.8396694308   0.000000000000 0.04376838  0.00107725  0.3531141 0.7000
  1   -380.0218033167  -0.182133885940 0.02922271  0.00074458  0.2166102 0.7000
                               ***Turning on DIIS***
  2   -380.1177510130  -0.095947696242 0.01682101  0.00041268  0.1637787 0.7000
  3   -380.9590791873  -0.841328174306 0.00782995  0.00018556  0.1218531 0.7000
  4   -380.7866411101   0.172438077179 0.01746954  0.00042859  0.0861927 0.0000
  5   -380.3375404661   0.449100643932 0.00205311  0.00006958  0.0058093 0.0000
                      *** Initiating the SOSCF procedure ***
                           *** Shutting down DIIS ***
                      *** Re-Reading the Fockian *** 
                      *** Removing any level shift *** 
ITER      Energy       Delta-E        Grad      Rot      Max-DP    RMS-DP
  6   -380.31039017   0.0271502951  0.000831  0.000831  0.001347  0.000042
               *** Restarting incremental Fock matrix formation ***
  7   -380.30243655   0.0079536256  0.000281  0.000426  0.000665  0.000019
  8   -380.30244416  -0.0000076100  0.000175  0.000363  0.000504  0.000016
  9   -380.30244598  -0.0000018259  0.000086  0.000057  0.000096  0.000003
 10   -380.30244613  -0.0000001511  0.000013  0.000007  0.000019  0.000000
                  ***Gradient check signals convergence***
              ***Rediagonalizing the Fockian in SOSCF/NRSCF***

               *****************************************************
               *                     SUCCESS                       *
               *           SCF CONVERGED AFTER  11 CYCLES          *
               *****************************************************


----------------
TOTAL SCF ENERGY
----------------

Total Energy       :         -380.30244614 Eh          -10348.55567 eV

Components:
Nuclear Repulsion  :          182.47047886 Eh            4965.27416 eV
Electronic Energy  :         -562.77292499 Eh          -15313.82983 eV
One Electron Energy:         -888.21615629 Eh          -24169.59037 eV
Two Electron Energy:          325.44323130 Eh            8855.76054 eV

Virial components:
Potential Energy   :         -760.09184692 Eh          -20683.15067 eV
Kinetic Energy     :          379.78940078 Eh           10334.59500 eV
Virial Ratio       :            2.00135087


---------------
SCF CONVERGENCE
---------------

  Last Energy change         ...   -3.3943e-09  Tolerance :   1.0000e-08
  Last MAX-Density change    ...    5.2158e-06  Tolerance :   1.0000e-07
  Last RMS-Density change    ...    1.4789e-07  Tolerance :   5.0000e-09
  Last Orbital Gradient      ...    2.3255e-06  Tolerance :   1.0000e-05
  Last Orbital Rotation      ...    2.8002e-06  Tolerance :   1.0000e-05

             **** THE GBW FILE WAS UPDATED (12h2o.su.etal.mol2,5,7,8,11-orca.engrad-mp2.def2tzvp.frozencore.gbw) ****
             **** DENSITY FILE WAS UPDATED (12h2o.su.etal.mol2,5,7,8,11-orca.engrad-mp2.def2tzvp.frozencore.scfp) ****
             **** ENERGY FILE WAS UPDATED (12h2o.su.etal.mol2,5,7,8,11-orca.engrad-mp2.def2tzvp.frozencore.en.tmp) ****
             **** THE GBW FILE WAS UPDATED (12h2o.su.etal.mol2,5,7,8,11-orca.engrad-mp2.def2tzvp.frozencore.gbw) ****
             **** DENSITY FILE WAS UPDATED (12h2o.su.etal.mol2,5,7,8,11-orca.engrad-mp2.def2tzvp.frozencore.scfp) ****
----------------
ORBITAL ENERGIES
----------------

  NO   OCC          E(Eh)            E(eV) 
   0   2.0000     -20.618650      -561.0620 
   1   2.0000     -20.567801      -559.6783 
   2   2.0000     -20.562741      -559.5406 
   3   2.0000     -20.555381      -559.3403 
   4   2.0000     -20.527905      -558.5927 
   5   2.0000      -1.404091       -38.2073 
   6   2.0000      -1.354409       -36.8554 
   7   2.0000      -1.341866       -36.5140 
   8   2.0000      -1.336938       -36.3799 
   9   2.0000      -1.308213       -35.5983 
  10   2.0000      -0.761157       -20.7121 
  11   2.0000      -0.726251       -19.7623 
  12   2.0000      -0.713734       -19.4217 
  13   2.0000      -0.704888       -19.1810 
  14   2.0000      -0.682391       -18.5688 
  15   2.0000      -0.642584       -17.4856 
  16   2.0000      -0.603725       -16.4282 
  17   2.0000      -0.583007       -15.8644 
  18   2.0000      -0.579575       -15.7710 
  19   2.0000      -0.556824       -15.1520 
  20   2.0000      -0.542207       -14.7542 
  21   2.0000      -0.506945       -13.7947 
  22   2.0000      -0.504588       -13.7305 
  23   2.0000      -0.503298       -13.6954 
  24   2.0000      -0.475750       -12.9458 
  25   0.0000       0.077143         2.0992 
  26   0.0000       0.115683         3.1479 
  27   0.0000       0.148681         4.0458 
  28   0.0000       0.153295         4.1714 
  29   0.0000       0.177764         4.8372 
  30   0.0000       0.207252         5.6396 
  31   0.0000       0.227739         6.1971 
  32   0.0000       0.268624         7.3096 
  33   0.0000       0.309457         8.4208 
  34   0.0000       0.328389         8.9359 
  35   0.0000       0.452150        12.3036 
  36   0.0000       0.461426        12.5561 
  37   0.0000       0.490856        13.3569 
  38   0.0000       0.517597        14.0845 
  39   0.0000       0.521076        14.1792 
  40   0.0000       0.541758        14.7420 
  41   0.0000       0.559583        15.2270 
  42   0.0000       0.563652        15.3377 
  43   0.0000       0.567601        15.4452 
  44   0.0000       0.589390        16.0381 
  45   0.0000       0.606646        16.5077 
  46   0.0000       0.615584        16.7509 
  47   0.0000       0.624878        17.0038 
  48   0.0000       0.637222        17.3397 
  49   0.0000       0.648169        17.6376 
  50   0.0000       0.664728        18.0882 
  51   0.0000       0.699777        19.0419 
  52   0.0000       0.713255        19.4087 
  53   0.0000       0.725162        19.7327 
  54   0.0000       0.750031        20.4094 
  55   0.0000       0.770666        20.9709 
  56   0.0000       0.781447        21.2642 
  57   0.0000       0.786918        21.4131 
  58   0.0000       0.813748        22.1432 
  59   0.0000       0.824394        22.4329 
  60   0.0000       0.844505        22.9801 
  61   0.0000       0.925541        25.1853 
  62   0.0000       0.996921        27.1276 
  63   0.0000       1.019944        27.7541 
  64   0.0000       1.047483        28.5035 
  65   0.0000       1.338312        36.4173 
  66   0.0000       1.366886        37.1949 
  67   0.0000       1.386536        37.7296 
  68   0.0000       1.407212        38.2922 
  69   0.0000       1.417236        38.5650 
  70   0.0000       1.439136        39.1609 
  71   0.0000       1.448772        39.4231 
  72   0.0000       1.466762        39.9126 
  73   0.0000       1.481369        40.3101 
  74   0.0000       1.497387        40.7460 
  75   0.0000       1.547157        42.1003 
  76   0.0000       1.557268        42.3754 
  77   0.0000       1.575414        42.8692 
  78   0.0000       1.586535        43.1718 
  79   0.0000       1.640002        44.6267 
  80   0.0000       1.763032        47.9745 
  81   0.0000       1.783962        48.5441 
  82   0.0000       1.793164        48.7945 
  83   0.0000       1.831709        49.8433 
  84   0.0000       1.864213        50.7278 
  85   0.0000       1.893156        51.5154 
  86   0.0000       1.920168        52.2504 
  87   0.0000       1.925387        52.3924 
  88   0.0000       1.971285        53.6414 
  89   0.0000       2.011718        54.7416 
  90   0.0000       2.022526        55.0357 
  91   0.0000       2.055057        55.9209 
  92   0.0000       2.100174        57.1486 
  93   0.0000       2.122297        57.7506 
  94   0.0000       2.149912        58.5021 
  95   0.0000       2.215323        60.2820 
  96   0.0000       2.278741        62.0077 
  97   0.0000       2.301022        62.6140 
  98   0.0000       2.304951        62.7209 
  99   0.0000       2.323619        63.2289 
 100   0.0000       2.342411        63.7402 
 101   0.0000       2.347104        63.8679 
 102   0.0000       2.361772        64.2671 
 103   0.0000       2.379978        64.7625 
 104   0.0000       2.381685        64.8089 
 105   0.0000       2.397449        65.2379 
 106   0.0000       2.472073        67.2685 
 107   0.0000       2.507931        68.2443 
 108   0.0000       2.523488        68.6676 
 109   0.0000       2.542362        69.1812 
 110   0.0000       2.565063        69.7989 
 111   0.0000       2.582489        70.2731 
 112   0.0000       2.599345        70.7318 
 113   0.0000       2.615070        71.1597 
 114   0.0000       2.633105        71.6504 
 115   0.0000       2.644985        71.9737 
 116   0.0000       2.683909        73.0329 
 117   0.0000       2.706950        73.6599 
 118   0.0000       2.735814        74.4453 
 119   0.0000       2.780245        75.6543 
 120   0.0000       2.870754        78.1172 
 121   0.0000       2.903937        79.0202 
 122   0.0000       2.925269        79.6006 
 123   0.0000       2.946541        80.1795 
 124   0.0000       2.951332        80.3098 
 125   0.0000       2.955882        80.4336 
 126   0.0000       2.973443        80.9115 
 127   0.0000       2.994845        81.4939 
 128   0.0000       3.024190        82.2924 
 129   0.0000       3.028300        82.4042 
 130   0.0000       3.062288        83.3291 
 131   0.0000       3.095867        84.2428 
 132   0.0000       3.105919        84.5164 
 133   0.0000       3.167895        86.2028 
 134   0.0000       3.170606        86.2766 
 135   0.0000       3.238042        88.1116 
 136   0.0000       3.263701        88.8098 
 137   0.0000       3.294783        89.6556 
 138   0.0000       3.435966        93.4974 
 139   0.0000       3.485260        94.8388 
 140   0.0000       3.980982       108.3280 
 141   0.0000       4.021682       109.4355 
 142   0.0000       4.059317       110.4596 
 143   0.0000       4.091717       111.3413 
 144   0.0000       4.092346       111.3584 
 145   0.0000       4.253870       115.7537 
 146   0.0000       4.303740       117.1107 
 147   0.0000       4.306344       117.1816 
 148   0.0000       4.361755       118.6894 
 149   0.0000       4.372835       118.9909 
 150   0.0000       5.490338       149.3997 
 151   0.0000       5.536166       150.6467 
 152   0.0000       5.547696       150.9605 
 153   0.0000       5.553455       151.1172 
 154   0.0000       5.577713       151.7773 
 155   0.0000       5.628611       153.1623 
 156   0.0000       5.643645       153.5714 
 157   0.0000       5.652059       153.8004 
 158   0.0000       5.671000       154.3158 
 159   0.0000       5.683899       154.6667 
 160   0.0000       5.777593       157.2163 
 161   0.0000       5.782329       157.3452 
 162   0.0000       5.808723       158.0634 
 163   0.0000       5.820687       158.3889 
 164   0.0000       5.828248       158.5947 
 165   0.0000       5.836107       158.8085 
 166   0.0000       5.846345       159.0871 
 167   0.0000       5.850826       159.2091 
 168   0.0000       5.851998       159.2409 
 169   0.0000       5.866681       159.6405 
 170   0.0000       5.890093       160.2776 
 171   0.0000       5.893839       160.3795 
 172   0.0000       5.894364       160.3938 
 173   0.0000       5.924907       161.2249 
 174   0.0000       5.932949       161.4437 
 175   0.0000       6.430838       174.9920 
 176   0.0000       6.461296       175.8208 
 177   0.0000       6.467914       176.0009 
 178   0.0000       6.487700       176.5393 
 179   0.0000       6.503075       176.9577 
 180   0.0000       6.662868       181.3058 
 181   0.0000       6.677695       181.7093 
 182   0.0000       6.693764       182.1466 
 183   0.0000       6.721806       182.9096 
 184   0.0000       6.756307       183.8485 
 185   0.0000       6.819425       185.5660 
 186   0.0000       6.828434       185.8111 
 187   0.0000       6.845145       186.2659 
 188   0.0000       6.872586       187.0126 
 189   0.0000       6.876989       187.1324 
 190   0.0000       6.885116       187.3535 
 191   0.0000       6.888901       187.4565 
 192   0.0000       6.917667       188.2393 
 193   0.0000       6.930168       188.5795 
 194   0.0000       6.942658       188.9193 
 195   0.0000       6.946050       189.0116 
 196   0.0000       6.966575       189.5701 
 197   0.0000       6.992986       190.2888 
 198   0.0000       7.031571       191.3388 
 199   0.0000       7.042161       191.6269 
 200   0.0000       7.362566       200.3456 
 201   0.0000       7.364705       200.4038 
 202   0.0000       7.390937       201.1176 
 203   0.0000       7.449462       202.7102 
 204   0.0000       7.467751       203.2078 
 205   0.0000       7.475332       203.4141 
 206   0.0000       7.503564       204.1824 
 207   0.0000       7.545083       205.3122 
 208   0.0000       7.556264       205.6164 
 209   0.0000       7.586579       206.4413 
 210   0.0000      44.844342      1220.2766 
 211   0.0000      44.877951      1221.1911 
 212   0.0000      44.956057      1223.3165 
 213   0.0000      44.974809      1223.8268 
 214   0.0000      44.988577      1224.2014 

                    ********************************
                    * MULLIKEN POPULATION ANALYSIS *
                    ********************************

-----------------------
MULLIKEN ATOMIC CHARGES
-----------------------
   0 O :   -0.762621
   1 H :    0.349648
   2 H :    0.393665
   3 O :   -0.724167
   4 H :    0.331175
   5 H :    0.404546
   6 O :   -0.741216
   7 H :    0.323722
   8 H :    0.389517
   9 O :   -0.703629
  10 H :    0.360685
  11 H :    0.380327
  12 O :   -0.693858
  13 H :    0.347033
  14 H :    0.345172
Sum of atomic charges:   -0.0000000

--------------------------------
MULLIKEN REDUCED ORBITAL CHARGES
--------------------------------
  0 O s       :     3.808774  s :     3.808774
      pz      :     1.709028  p :     4.929318
      px      :     1.810434
      py      :     1.409856
      dz2     :     0.003560  d :     0.023095
      dxz     :     0.005512
      dyz     :     0.004114
      dx2y2   :     0.002298
      dxy     :     0.007610
      f0      :     0.000079  f :     0.001434
      f+1     :     0.000177
      f-1     :     0.000311
      f+2     :     0.000070
      f-2     :     0.000348
      f+3     :     0.000359
      f-3     :     0.000090
  1 H s       :     0.604564  s :     0.604564
      pz      :     0.016825  p :     0.045788
      px      :     0.015020
      py      :     0.013943
  2 H s       :     0.549738  s :     0.549738
      pz      :     0.010464  p :     0.056597
      px      :     0.014260
      py      :     0.031873
  3 O s       :     3.802650  s :     3.802650
      pz      :     1.611195  p :     4.895021
      px      :     1.841164
      py      :     1.442662
      dz2     :     0.011404  d :     0.025111
      dxz     :     0.002251
      dyz     :     0.002795
      dx2y2   :     0.003593
      dxy     :     0.005067
      f0      :     0.000146  f :     0.001384
      f+1     :     0.000113
      f-1     :     0.000456
      f+2     :     0.000068
      f-2     :     0.000040
      f+3     :     0.000452
      f-3     :     0.000109
  4 H s       :     0.625588  s :     0.625588
      pz      :     0.010405  p :     0.043238
      px      :     0.014607
      py      :     0.018225
  5 H s       :     0.547054  s :     0.547054
      pz      :     0.025495  p :     0.048400
      px      :     0.012217
      py      :     0.010688
  6 O s       :     3.812326  s :     3.812326
      pz      :     1.514614  p :     4.902389
      px      :     1.509880
      py      :     1.877894
      dz2     :     0.011624  d :     0.025058
      dxz     :     0.002988
      dyz     :     0.002570
      dx2y2   :     0.002994
      dxy     :     0.004882
      f0      :     0.000186  f :     0.001443
      f+1     :     0.000452
      f-1     :     0.000125
      f+2     :     0.000077
      f-2     :     0.000042
      f+3     :     0.000115
      f-3     :     0.000446
  7 H s       :     0.631128  s :     0.631128
      pz      :     0.018123  p :     0.045149
      px      :     0.012442
      py      :     0.014584
  8 H s       :     0.556583  s :     0.556583
      pz      :     0.009493  p :     0.053899
      px      :     0.028990
      py      :     0.015417
  9 O s       :     3.800556  s :     3.800556
      pz      :     1.521280  p :     4.875545
      px      :     1.563047
      py      :     1.791218
      dz2     :     0.012622  d :     0.026076
      dxz     :     0.001267
      dyz     :     0.002510
      dx2y2   :     0.002518
      dxy     :     0.007159
      f0      :     0.000251  f :     0.001453
      f+1     :     0.000394
      f-1     :     0.000164
      f+2     :     0.000051
      f-2     :     0.000057
      f+3     :     0.000053
      f-3     :     0.000483
 10 H s       :     0.595365  s :     0.595365
      pz      :     0.019331  p :     0.043950
      px      :     0.011837
      py      :     0.012781
 11 H s       :     0.576503  s :     0.576503
      pz      :     0.010039  p :     0.043170
      px      :     0.018611
      py      :     0.014520
 12 O s       :     3.813575  s :     3.813575
      pz      :     1.502768  p :     4.852396
      px      :     1.818244
      py      :     1.531384
      dz2     :     0.012260  d :     0.026347
      dxz     :     0.003092
      dyz     :     0.001245
      dx2y2   :     0.002134
      dxy     :     0.007617
      f0      :     0.000269  f :     0.001540
      f+1     :     0.000176
      f-1     :     0.000385
      f+2     :     0.000057
      f-2     :     0.000057
      f+3     :     0.000525
      f-3     :     0.000071
 13 H s       :     0.608188  s :     0.608188
      pz      :     0.018950  p :     0.044779
      px      :     0.013637
      py      :     0.012192
 14 H s       :     0.610238  s :     0.610238
      pz      :     0.010643  p :     0.044590
      px      :     0.015757
      py      :     0.018190


                     *******************************
                     * LOEWDIN POPULATION ANALYSIS *
                     *******************************

----------------------
LOEWDIN ATOMIC CHARGES
----------------------
   0 O :   -0.342708
   1 H :    0.155392
   2 H :    0.152639
   3 O :   -0.307003
   4 H :    0.162737
   5 H :    0.162014
   6 O :   -0.363611
   7 H :    0.151420
   8 H :    0.152886
   9 O :   -0.275355
  10 H :    0.170807
  11 H :    0.182397
  12 O :   -0.331564
  13 H :    0.164791
  14 H :    0.165158

-------------------------------
LOEWDIN REDUCED ORBITAL CHARGES
-------------------------------
  0 O s       :     3.461144  s :     3.461144
      pz      :     1.676587  p :     4.850046
      px      :     1.781018
      py      :     1.392441
      dz2     :     0.004615  d :     0.029529
      dxz     :     0.005679
      dyz     :     0.006632
      dx2y2   :     0.003296
      dxy     :     0.009307
      f0      :     0.000081  f :     0.001990
      f+1     :     0.000262
      f-1     :     0.000428
      f+2     :     0.000034
      f-2     :     0.000613
      f+3     :     0.000486
      f-3     :     0.000085
  1 H s       :     0.679871  s :     0.679871
      pz      :     0.065735  p :     0.164738
      px      :     0.053301
      py      :     0.045701
  2 H s       :     0.652962  s :     0.652962
      pz      :     0.033594  p :     0.194400
      px      :     0.047671
      py      :     0.113135
  3 O s       :     3.464077  s :     3.464077
      pz      :     1.582659  p :     4.809064
      px      :     1.782095
      py      :     1.444309
      dz2     :     0.014212  d :     0.031816
      dxz     :     0.001329
      dyz     :     0.003569
      dx2y2   :     0.005727
      dxy     :     0.006979
      f0      :     0.000312  f :     0.002046
      f+1     :     0.000207
      f-1     :     0.000718
      f+2     :     0.000038
      f-2     :     0.000041
      f+3     :     0.000653
      f-3     :     0.000078
  4 H s       :     0.683855  s :     0.683855
      pz      :     0.031058  p :     0.153409
      px      :     0.049462
      py      :     0.072889
  5 H s       :     0.663731  s :     0.663731
      pz      :     0.096422  p :     0.174255
      px      :     0.042178
      py      :     0.035655
  6 O s       :     3.472690  s :     3.472690
      pz      :     1.531830  p :     4.857725
      px      :     1.486138
      py      :     1.839756
      dz2     :     0.015311  d :     0.031135
      dxz     :     0.004515
      dyz     :     0.001732
      dx2y2   :     0.003782
      dxy     :     0.005795
      f0      :     0.000404  f :     0.002062
      f+1     :     0.000761
      f-1     :     0.000195
      f+2     :     0.000049
      f-2     :     0.000047
      f+3     :     0.000065
      f-3     :     0.000542
  7 H s       :     0.690039  s :     0.690039
      pz      :     0.077826  p :     0.158541
      px      :     0.036878
      py      :     0.043838
  8 H s       :     0.662046  s :     0.662046
      pz      :     0.028835  p :     0.185068
      px      :     0.103737
      py      :     0.052495
  9 O s       :     3.459141  s :     3.459141
      pz      :     1.515097  p :     4.780286
      px      :     1.535399
      py      :     1.729790
      dz2     :     0.016987  d :     0.033728
      dxz     :     0.002022
      dyz     :     0.002015
      dx2y2   :     0.003663
      dxy     :     0.009041
      f0      :     0.000465  f :     0.002200
      f+1     :     0.000590
      f-1     :     0.000346
      f+2     :     0.000022
      f-2     :     0.000048
      f+3     :     0.000027
      f-3     :     0.000702
 10 H s       :     0.670563  s :     0.670563
      pz      :     0.080993  p :     0.158630
      px      :     0.035748
      py      :     0.041889
 11 H s       :     0.659843  s :     0.659843
      pz      :     0.029513  p :     0.157760
      px      :     0.073346
      py      :     0.054901
 12 O s       :     3.473081  s :     3.473081
      pz      :     1.509661  p :     4.822604
      px      :     1.788467
      py      :     1.524476
      dz2     :     0.016715  d :     0.033649
      dxz     :     0.002520
      dyz     :     0.002110
      dx2y2   :     0.002329
      dxy     :     0.009975
      f0      :     0.000488  f :     0.002230
      f+1     :     0.000330
      f-1     :     0.000601
      f+2     :     0.000027
      f-2     :     0.000048
      f+3     :     0.000733
      f-3     :     0.000003
 13 H s       :     0.677680  s :     0.677680
      pz      :     0.080373  p :     0.157529
      px      :     0.042000
      py      :     0.035156
 14 H s       :     0.678355  s :     0.678355
      pz      :     0.029765  p :     0.156487
      px      :     0.054890
      py      :     0.071832


                      *****************************
                      * MAYER POPULATION ANALYSIS *
                      *****************************

  NA   - Mulliken gross atomic population
  ZA   - Total nuclear charge
  QA   - Mulliken gross atomic charge
  VA   - Mayer's total valence
  BVA  - Mayer's bonded valence
  FA   - Mayer's free valence

  ATOM       NA         ZA         QA         VA         BVA        FA
  0 O      8.7626     8.0000    -0.7626     1.7040     1.7040     0.0000
  1 H      0.6504     1.0000     0.3496     0.8941     0.8941    -0.0000
  2 H      0.6063     1.0000     0.3937     0.8790     0.8790     0.0000
  3 O      8.7242     8.0000    -0.7242     1.7559     1.7559    -0.0000
  4 H      0.6688     1.0000     0.3312     0.9087     0.9087    -0.0000
  5 H      0.5955     1.0000     0.4045     0.8695     0.8695    -0.0000
  6 O      8.7412     8.0000    -0.7412     1.7181     1.7181    -0.0000
  7 H      0.6763     1.0000     0.3237     0.9106     0.9106     0.0000
  8 H      0.6105     1.0000     0.3895     0.8855     0.8855     0.0000
  9 O      8.7036     8.0000    -0.7036     1.7792     1.7792    -0.0000
 10 H      0.6393     1.0000     0.3607     0.8855     0.8855    -0.0000
 11 H      0.6197     1.0000     0.3803     0.8688     0.8688    -0.0000
 12 O      8.6939     8.0000    -0.6939     1.7804     1.7804    -0.0000
 13 H      0.6530     1.0000     0.3470     0.8953     0.8953    -0.0000
 14 H      0.6548     1.0000     0.3452     0.8978     0.8978    -0.0000

  Mayer bond orders larger than 0.100000
B(  0-O ,  1-H ) :   0.8859 B(  0-O ,  2-H ) :   0.8086 B(  3-O ,  4-H ) :   0.8955 
B(  3-O ,  5-H ) :   0.8218 B(  6-O ,  7-H ) :   0.9043 B(  6-O ,  8-H ) :   0.8230 
B(  9-O , 10-H ) :   0.8770 B(  9-O , 11-H ) :   0.8631 B( 12-O , 13-H ) :   0.8883 
B( 12-O , 14-H ) :   0.8897 

-------
TIMINGS
-------

Total SCF time: 0 days 0 hours 0 min 6 sec 

Total time                  ....       6.439 sec
Sum of individual times     ....       6.273 sec  ( 97.4%)

Fock matrix formation       ....       5.620 sec  ( 87.3%)
Diagonalization             ....       0.111 sec  (  1.7%)
Density matrix formation    ....       0.007 sec  (  0.1%)
Population analysis         ....       0.014 sec  (  0.2%)
Initial guess               ....       0.101 sec  (  1.6%)
Orbital Transformation      ....       0.000 sec  (  0.0%)
Orbital Orthonormalization  ....       0.000 sec  (  0.0%)
DIIS solution               ....       0.042 sec  (  0.7%)
SOSCF solution              ....       0.337 sec  (  5.2%)


           ************************************************************
           *        Program running with 6 parallel MPI-processes     *
           *              working on a common directory               *
           ************************************************************

------------------------------------------------------------------------------
                                ORCA  MP2 
------------------------------------------------------------------------------

Freezing NCore=10 chemical core electrons
MP2 will be done in the AO integral direct mode
The Q1-step will be done using symmetric double matrices
Dimension of the basis                    ...  215
Memory devoted for MP2                    ... 8000 MB   
Memory needed for all in one shot         ...  153 MB
Number of MOs that can be treated together...  209      
MP2 density construction                  ... relaxed
The MP2 gradient is requested => amplitudes will be stored on disk
Total number of MOs              ...   20
Number of MOs treated per batch  ...    4 
Number of batches necessary      ...    1 
OPERATORS   0/  0 PASS   0
-----------------------------------------------
 MP2 CORRELATION ENERGY   :     -1.288407642 Eh
-----------------------------------------------


---------------------
MP2 DENSITY FORMATION
---------------------

Completing the external part of the density      ... done
Storing the unrelaxed density                    ... done

Calculating G(D)                                 ... done
Completing the Lagrangian                        ... done
Solving the Z-vector equations                   ... 

------------------------------------------------------------------------------
                           ORCA CP-SCF CALCULATION
------------------------------------------------------------------------------

Input orbitals are from        ... 12h2o.su.etal.mol2,5,7,8,11-orca.engrad-mp2.def2tzvp.frozencore.gbw
Input Perturbation             ... 12h2o.su.etal.mol2,5,7,8,11-orca.engrad-mp2.def2tzvp.frozencore.pin.tmp
Wavefunction output            ... 12h2o.su.etal.mol2,5,7,8,11-orca.engrad-mp2.def2tzvp.frozencore.pout.tmp
Perturbation mode              ... Real perturbation (singlet)
Solver                         ... POPLE
Max. number of iterations      ... 128
Convergence tolerance          ... 1.000e-08
Integral handling              ... Direct
Number of perturbations        ... 1
Number of operators            ... 1
Orbital ranges used for CP-SCF:
 Operator 0:  Orbitals   0... 24  to  25...214
Variables per vector in CP-SCF ... 4750
Number of vectors sought       ... 1
     CP-SCF ITERATION   0: 
     CP-SCF ITERATION   1:      0.000642232778
     CP-SCF ITERATION   2:      0.000015210627
     CP-SCF ITERATION   3:      0.000000702867
     CP-SCF ITERATION   4:      0.000000068319
     CP-SCF ITERATION   5:      0.000000006247
                                                 ... done
Finalizing the relaxed density                   ... done
Transforming P to the AO basis                   ... done
Storing the relaxed density                      ... done

------------------------------------
ENERGY WEIGHTED DENSITY FINALIZATION
------------------------------------

Gathering the parts of the W-matrix              ...                                                      done
Forming the Z-density                            ... done
Transforming Z to the AO basis                   ... done
Calculating G(Z)                                 ... done
Finalizing the W-matrix                          ...                                                      done
Transforming W to the AO basis and storing       ... done

                *********************************************
                * UNRELAXED MP2 DENSITY POPULATION ANALYSIS *
                *********************************************

------------------------------------------------------------------------------
                           ORCA POPULATION ANALYSIS
------------------------------------------------------------------------------
Input electron density              ... 12h2o.su.etal.mol2,5,7,8,11-orca.engrad-mp2.def2tzvp.frozencore.pmp2ur
BaseName (.gbw .S,...)              ... 12h2o.su.etal.mol2,5,7,8,11-orca.engrad-mp2.def2tzvp.frozencore

                    ********************************
                    * MULLIKEN POPULATION ANALYSIS *
                    ********************************

-----------------------
MULLIKEN ATOMIC CHARGES
-----------------------
   0 O :   -0.756594
   1 H :    0.347393
   2 H :    0.389170
   3 O :   -0.717687
   4 H :    0.328408
   5 H :    0.401303
   6 O :   -0.735597
   7 H :    0.321216
   8 H :    0.385387
   9 O :   -0.697437
  10 H :    0.358228
  11 H :    0.377954
  12 O :   -0.689068
  13 H :    0.344616
  14 H :    0.342709
Sum of atomic charges:   -0.0000000

--------------------------------
MULLIKEN REDUCED ORBITAL CHARGES
--------------------------------
  0 O s       :     3.803864  s :     3.803864
      pz      :     1.698037  p :     4.898188
      px      :     1.798969
      py      :     1.401182
      dz2     :     0.009197  d :     0.050527
      dxz     :     0.010953
      dyz     :     0.009598
      dx2y2   :     0.007823
      dxy     :     0.012957
      f0      :     0.000451  f :     0.004015
      f+1     :     0.000543
      f-1     :     0.000677
      f+2     :     0.000440
      f-2     :     0.000715
      f+3     :     0.000725
      f-3     :     0.000464
  1 H s       :     0.605175  s :     0.605175
      pz      :     0.017302  p :     0.047432
      px      :     0.015749
      py      :     0.014382
  2 H s       :     0.552565  s :     0.552565
      pz      :     0.011287  p :     0.058266
      px      :     0.015003
      py      :     0.031975
  3 O s       :     3.797512  s :     3.797512
      pz      :     1.601135  p :     4.863904
      px      :     1.828584
      py      :     1.434185
      dz2     :     0.016632  d :     0.052303
      dxz     :     0.007879
      dyz     :     0.008157
      dx2y2   :     0.009119
      dxy     :     0.010516
      f0      :     0.000533  f :     0.003968
      f+1     :     0.000490
      f-1     :     0.000823
      f+2     :     0.000433
      f-2     :     0.000406
      f+3     :     0.000806
      f-3     :     0.000476
  4 H s       :     0.626639  s :     0.626639
      pz      :     0.011276  p :     0.044953
      px      :     0.015373
      py      :     0.018304
  5 H s       :     0.548864  s :     0.548864
      pz      :     0.025577  p :     0.049833
      px      :     0.013013
      py      :     0.011243
  6 O s       :     3.807326  s :     3.807326
      pz      :     1.505589  p :     4.872406
      px      :     1.500787
      py      :     1.866030
      dz2     :     0.016670  d :     0.051859
      dxz     :     0.008326
      dyz     :     0.008060
      dx2y2   :     0.008501
      dxy     :     0.010303
      f0      :     0.000564  f :     0.004006
      f+1     :     0.000818
      f-1     :     0.000494
      f+2     :     0.000438
      f-2     :     0.000407
      f+3     :     0.000483
      f-3     :     0.000803
  7 H s       :     0.631865  s :     0.631865
      pz      :     0.018301  p :     0.046919
      px      :     0.013124
      py      :     0.015494
  8 H s       :     0.559055  s :     0.559055
      pz      :     0.010304  p :     0.055557
      px      :     0.029139
      py      :     0.016115
  9 O s       :     3.795380  s :     3.795380
      pz      :     1.512202  p :     4.844971
      px      :     1.553825
      py      :     1.778944
      dz2     :     0.017674  d :     0.053051
      dxz     :     0.006635
      dyz     :     0.008059
      dx2y2   :     0.008133
      dxy     :     0.012550
      f0      :     0.000630  f :     0.004035
      f+1     :     0.000759
      f-1     :     0.000539
      f+2     :     0.000413
      f-2     :     0.000423
      f+3     :     0.000428
      f-3     :     0.000843
 10 H s       :     0.596245  s :     0.596245
      pz      :     0.019416  p :     0.045527
      px      :     0.012505
      py      :     0.013605
 11 H s       :     0.577376  s :     0.577376
      pz      :     0.010782  p :     0.044669
      px      :     0.018764
      py      :     0.015124
 12 O s       :     3.808753  s :     3.808753
      pz      :     1.493929  p :     4.823605
      px      :     1.807090
      py      :     1.522586
      dz2     :     0.017218  d :     0.052625
      dxz     :     0.008476
      dyz     :     0.006556
      dx2y2   :     0.007573
      dxy     :     0.012803
      f0      :     0.000644  f :     0.004085
      f+1     :     0.000546
      f-1     :     0.000747
      f+2     :     0.000414
      f-2     :     0.000420
      f+3     :     0.000877
      f-3     :     0.000438
 13 H s       :     0.608968  s :     0.608968
      pz      :     0.019031  p :     0.046416
      px      :     0.014499
      py      :     0.012886
 14 H s       :     0.611054  s :     0.611054
      pz      :     0.011433  p :     0.046237
      px      :     0.016439
      py      :     0.018364


                     *******************************
                     * LOEWDIN POPULATION ANALYSIS *
                     *******************************

----------------------
LOEWDIN ATOMIC CHARGES
----------------------
   0 O :   -0.339318
   1 H :    0.154124
   2 H :    0.150091
   3 O :   -0.302715
   4 H :    0.160862
   5 H :    0.159983
   6 O :   -0.360927
   7 H :    0.149815
   8 H :    0.150441
   9 O :   -0.271108
  10 H :    0.169367
  11 H :    0.181116
  12 O :   -0.328818
  13 H :    0.163386
  14 H :    0.163701

-------------------------------
LOEWDIN REDUCED ORBITAL CHARGES
-------------------------------
  0 O s       :     3.457478  s :     3.457478
      pz      :     1.665128  p :     4.819008
      px      :     1.769909
      py      :     1.383971
      dz2     :     0.010340  d :     0.058065
      dxz     :     0.011443
      dyz     :     0.012326
      dx2y2   :     0.008930
      dxy     :     0.015026
      f0      :     0.000465  f :     0.004768
      f+1     :     0.000647
      f-1     :     0.000842
      f+2     :     0.000411
      f-2     :     0.001024
      f+3     :     0.000906
      f-3     :     0.000472
  1 H s       :     0.677963  s :     0.677963
      pz      :     0.066970  p :     0.167912
      px      :     0.054312
      py      :     0.046630
  2 H s       :     0.653014  s :     0.653014
      pz      :     0.034434  p :     0.196895
      px      :     0.048566
      py      :     0.113895
  3 O s       :     3.460248  s :     3.460248
      pz      :     1.572733  p :     4.777567
      px      :     1.769444
      py      :     1.435389
      dz2     :     0.020046  d :     0.060073
      dxz     :     0.006877
      dyz     :     0.008968
      dx2y2   :     0.011443
      dxy     :     0.012740
      f0      :     0.000729  f :     0.004827
      f+1     :     0.000599
      f-1     :     0.001154
      f+2     :     0.000410
      f-2     :     0.000414
      f+3     :     0.001064
      f-3     :     0.000456
  4 H s       :     0.682291  s :     0.682291
      pz      :     0.031914  p :     0.156847
      px      :     0.050467
      py      :     0.074466
  5 H s       :     0.663119  s :     0.663119
      pz      :     0.097617  p :     0.176897
      px      :     0.042926
      py      :     0.036355
  6 O s       :     3.468966  s :     3.468966
      pz      :     1.522355  p :     4.828075
      px      :     1.477249
      py      :     1.828471
      dz2     :     0.021026  d :     0.059067
      dxz     :     0.009868
      dyz     :     0.007155
      dx2y2   :     0.009472
      dxy     :     0.011545
      f0      :     0.000813  f :     0.004819
      f+1     :     0.001195
      f-1     :     0.000579
      f+2     :     0.000418
      f-2     :     0.000417
      f+3     :     0.000443
      f-3     :     0.000954
  7 H s       :     0.688160  s :     0.688160
      pz      :     0.079637  p :     0.162024
      px      :     0.037729
      py      :     0.044658
  8 H s       :     0.661801  s :     0.661801
      pz      :     0.029633  p :     0.187758
      px      :     0.104798
      py      :     0.053327
  9 O s       :     3.455261  s :     3.455261
      pz      :     1.505706  p :     4.749153
      px      :     1.526006
      py      :     1.717441
      dz2     :     0.022744  d :     0.061715
      dxz     :     0.007333
      dyz     :     0.007491
      dx2y2   :     0.009246
      dxy     :     0.014902
      f0      :     0.000885  f :     0.004978
      f+1     :     0.001009
      f-1     :     0.000744
      f+2     :     0.000389
      f-2     :     0.000421
      f+3     :     0.000407
      f-3     :     0.001122
 10 H s       :     0.668917  s :     0.668917
      pz      :     0.082529  p :     0.161715
      px      :     0.036483
      py      :     0.042703
 11 H s       :     0.658230  s :     0.658230
      pz      :     0.030223  p :     0.160654
      px      :     0.074559
      py      :     0.055873
 12 O s       :     3.469311  s :     3.469311
      pz      :     1.500501  p :     4.793540
      px      :     1.777629
      py      :     1.515410
      dz2     :     0.022378  d :     0.061001
      dxz     :     0.007844
      dyz     :     0.007352
      dx2y2   :     0.007754
      dxy     :     0.015672
      f0      :     0.000902  f :     0.004967
      f+1     :     0.000723
      f-1     :     0.001017
      f+2     :     0.000389
      f-2     :     0.000418
      f+3     :     0.001143
      f-3     :     0.000375
 13 H s       :     0.675919  s :     0.675919
      pz      :     0.081973  p :     0.160695
      px      :     0.042823
      py      :     0.035900
 14 H s       :     0.676618  s :     0.676618
      pz      :     0.030504  p :     0.159681
      px      :     0.055953
      py      :     0.073225


                      *****************************
                      * MAYER POPULATION ANALYSIS *
                      *****************************

  NA   - Mulliken gross atomic population
  ZA   - Total nuclear charge
  QA   - Mulliken gross atomic charge
  VA   - Mayer's total valence
  BVA  - Mayer's bonded valence
  FA   - Mayer's free valence

  ATOM       NA         ZA         QA         VA         BVA        FA
  0 O      8.7566     8.0000    -0.7566     2.0185     1.6253     0.3932
  1 H      0.6526     1.0000     0.3474     0.8999     0.8532     0.0467
  2 H      0.6108     1.0000     0.3892     0.8865     0.8403     0.0462
  3 O      8.7177     8.0000    -0.7177     2.0653     1.6751     0.3903
  4 H      0.6716     1.0000     0.3284     0.9153     0.8649     0.0504
  5 H      0.5987     1.0000     0.4013     0.8757     0.8326     0.0431
  6 O      8.7356     8.0000    -0.7356     2.0286     1.6377     0.3909
  7 H      0.6788     1.0000     0.3212     0.9170     0.8670     0.0500
  8 H      0.6146     1.0000     0.3854     0.8927     0.8471     0.0456
  9 O      8.6974     8.0000    -0.6974     2.0845     1.6989     0.3856
 10 H      0.6418     1.0000     0.3582     0.8914     0.8449     0.0465
 11 H      0.6220     1.0000     0.3780     0.8743     0.8296     0.0447
 12 O      8.6891     8.0000    -0.6891     2.0830     1.6984     0.3845
 13 H      0.6554     1.0000     0.3446     0.9014     0.8540     0.0473
 14 H      0.6573     1.0000     0.3427     0.9040     0.8563     0.0476

  Mayer bond orders larger than 0.100000
B(  0-O ,  1-H ) :   0.8456 B(  0-O ,  2-H ) :   0.7717 B(  3-O ,  4-H ) :   0.8525 
B(  3-O ,  5-H ) :   0.7863 B(  6-O ,  7-H ) :   0.8612 B(  6-O ,  8-H ) :   0.7864 
B(  9-O , 10-H ) :   0.8370 B(  9-O , 11-H ) :   0.8243 B( 12-O , 13-H ) :   0.8475 
B( 12-O , 14-H ) :   0.8486 


                *******************************************
                * RELAXED MP2 DENSITY POPULATION ANALYSIS *
                *******************************************

------------------------------------------------------------------------------
                           ORCA POPULATION ANALYSIS
------------------------------------------------------------------------------
Input electron density              ... 12h2o.su.etal.mol2,5,7,8,11-orca.engrad-mp2.def2tzvp.frozencore.pmp2re
BaseName (.gbw .S,...)              ... 12h2o.su.etal.mol2,5,7,8,11-orca.engrad-mp2.def2tzvp.frozencore

                    ********************************
                    * MULLIKEN POPULATION ANALYSIS *
                    ********************************

-----------------------
MULLIKEN ATOMIC CHARGES
-----------------------
   0 O :   -0.731871
   1 H :    0.340844
   2 H :    0.367903
   3 O :   -0.690462
   4 H :    0.321620
   5 H :    0.383930
   6 O :   -0.717431
   7 H :    0.315391
   8 H :    0.363620
   9 O :   -0.674927
  10 H :    0.352268
  11 H :    0.371888
  12 O :   -0.675667
  13 H :    0.337442
  14 H :    0.335455
Sum of atomic charges:   -0.0000000

--------------------------------
MULLIKEN REDUCED ORBITAL CHARGES
--------------------------------
  0 O s       :     3.805914  s :     3.805914
      pz      :     1.686595  p :     4.873363
      px      :     1.793341
      py      :     1.393427
      dz2     :     0.009034  d :     0.048646
      dxz     :     0.010644
      dyz     :     0.009036
      dx2y2   :     0.007713
      dxy     :     0.012221
      f0      :     0.000449  f :     0.003948
      f+1     :     0.000535
      f-1     :     0.000659
      f+2     :     0.000440
      f-2     :     0.000695
      f+3     :     0.000708
      f-3     :     0.000462
  1 H s       :     0.610963  s :     0.610963
      pz      :     0.017407  p :     0.048193
      px      :     0.016387
      py      :     0.014399
  2 H s       :     0.573543  s :     0.573543
      pz      :     0.012028  p :     0.058554
      px      :     0.015566
      py      :     0.030961
  3 O s       :     3.798056  s :     3.798056
      pz      :     1.597122  p :     4.838216
      px      :     1.813194
      py      :     1.427900
      dz2     :     0.015598  d :     0.050294
      dxz     :     0.007933
      dyz     :     0.007943
      dx2y2   :     0.008803
      dxy     :     0.010018
      f0      :     0.000520  f :     0.003895
      f+1     :     0.000484
      f-1     :     0.000795
      f+2     :     0.000433
      f-2     :     0.000404
      f+3     :     0.000784
      f-3     :     0.000474
  4 H s       :     0.632619  s :     0.632619
      pz      :     0.012096  p :     0.045761
      px      :     0.016197
      py      :     0.017468
  5 H s       :     0.565729  s :     0.565729
      pz      :     0.024941  p :     0.050342
      px      :     0.013844
      py      :     0.011557
  6 O s       :     3.808201  s :     3.808201
      pz      :     1.499008  p :     4.855470
      px      :     1.496781
      py      :     1.859681
      dz2     :     0.015440  d :     0.049822
      dxz     :     0.008071
      dyz     :     0.008105
      dx2y2   :     0.008298
      dxy     :     0.009907
      f0      :     0.000550  f :     0.003939
      f+1     :     0.000790
      f-1     :     0.000488
      f+2     :     0.000438
      f-2     :     0.000405
      f+3     :     0.000481
      f-3     :     0.000785
  7 H s       :     0.636829  s :     0.636829
      pz      :     0.017640  p :     0.047781
      px      :     0.013595
      py      :     0.016545
  8 H s       :     0.580499  s :     0.580499
      pz      :     0.010978  p :     0.055882
      px      :     0.028275
      py      :     0.016628
  9 O s       :     3.797887  s :     3.797887
      pz      :     1.507842  p :     4.822141
      px      :     1.550314
      py      :     1.763986
      dz2     :     0.016315  d :     0.050940
      dxz     :     0.006581
      dyz     :     0.008048
      dx2y2   :     0.008098
      dxy     :     0.011898
      f0      :     0.000611  f :     0.003959
      f+1     :     0.000737
      f-1     :     0.000529
      f+2     :     0.000413
      f-2     :     0.000421
      f+3     :     0.000428
      f-3     :     0.000818
 10 H s       :     0.601571  s :     0.601571
      pz      :     0.018668  p :     0.046162
      px      :     0.013025
      py      :     0.014469
 11 H s       :     0.582920  s :     0.582920
      pz      :     0.011402  p :     0.045192
      px      :     0.018243
      py      :     0.015546
 12 O s       :     3.813372  s :     3.813372
      pz      :     1.487583  p :     4.808019
      px      :     1.802159
      py      :     1.518278
      dz2     :     0.015829  d :     0.050267
      dxz     :     0.008433
      dyz     :     0.006484
      dx2y2   :     0.007491
      dxy     :     0.012030
      f0      :     0.000625  f :     0.004009
      f+1     :     0.000535
      f-1     :     0.000724
      f+2     :     0.000415
      f-2     :     0.000419
      f+3     :     0.000853
      f-3     :     0.000439
 13 H s       :     0.615411  s :     0.615411
      pz      :     0.018258  p :     0.047147
      px      :     0.015434
      py      :     0.013455
 14 H s       :     0.617564  s :     0.617564
      pz      :     0.012138  p :     0.046982
      px      :     0.017006
      py      :     0.017838


                     *******************************
                     * LOEWDIN POPULATION ANALYSIS *
                     *******************************

----------------------
LOEWDIN ATOMIC CHARGES
----------------------
   0 O :   -0.336374
   1 H :    0.156057
   2 H :    0.143167
   3 O :   -0.297027
   4 H :    0.162119
   5 H :    0.154838
   6 O :   -0.363047
   7 H :    0.151465
   8 H :    0.143584
   9 O :   -0.265975
  10 H :    0.170937
  11 H :    0.182784
  12 O :   -0.331919
  13 H :    0.164549
  14 H :    0.164843

-------------------------------
LOEWDIN REDUCED ORBITAL CHARGES
-------------------------------
  0 O s       :     3.459019  s :     3.459019
      pz      :     1.659473  p :     4.815150
      px      :     1.768285
      py      :     1.387391
      dz2     :     0.010374  d :     0.057400
      dxz     :     0.011378
      dyz     :     0.011986
      dx2y2   :     0.008924
      dxy     :     0.014737
      f0      :     0.000468  f :     0.004805
      f+1     :     0.000649
      f-1     :     0.000854
      f+2     :     0.000412
      f-2     :     0.001025
      f+3     :     0.000921
      f-3     :     0.000476
  1 H s       :     0.675980  s :     0.675980
      pz      :     0.066883  p :     0.167963
      px      :     0.054925
      py      :     0.046156
  2 H s       :     0.659656  s :     0.659656
      pz      :     0.035024  p :     0.197177
      px      :     0.049171
      py      :     0.112982
  3 O s       :     3.461435  s :     3.461435
      pz      :     1.573780  p :     4.771612
      px      :     1.759212
      py      :     1.438620
      dz2     :     0.019607  d :     0.059134
      dxz     :     0.006953
      dyz     :     0.008793
      dx2y2   :     0.011285
      dxy     :     0.012496
      f0      :     0.000729  f :     0.004847
      f+1     :     0.000600
      f-1     :     0.001162
      f+2     :     0.000412
      f-2     :     0.000413
      f+3     :     0.001071
      f-3     :     0.000459
  4 H s       :     0.680530  s :     0.680530
      pz      :     0.032605  p :     0.157352
      px      :     0.051141
      py      :     0.073606
  5 H s       :     0.668057  s :     0.668057
      pz      :     0.097116  p :     0.177105
      px      :     0.043627
      py      :     0.036362
  6 O s       :     3.470724  s :     3.470724
      pz      :     1.523804  p :     4.829382
      px      :     1.480039
      py      :     1.825539
      dz2     :     0.020387  d :     0.058093
      dxz     :     0.009620
      dyz     :     0.007220
      dx2y2   :     0.009418
      dxy     :     0.011448
      f0      :     0.000810  f :     0.004849
      f+1     :     0.001208
      f-1     :     0.000579
      f+2     :     0.000420
      f-2     :     0.000416
      f+3     :     0.000446
      f-3     :     0.000969
  7 H s       :     0.685935  s :     0.685935
      pz      :     0.079159  p :     0.162600
      px      :     0.037837
      py      :     0.045603
  8 H s       :     0.668128  s :     0.668128
      pz      :     0.030036  p :     0.188288
      px      :     0.104299
      py      :     0.053953
  9 O s       :     3.456713  s :     3.456713
      pz      :     1.507954  p :     4.743591
      px      :     1.527840
      py      :     1.707798
      dz2     :     0.022017  d :     0.060677
      dxz     :     0.007195
      dyz     :     0.007530
      dx2y2   :     0.009305
      dxy     :     0.014630
      f0      :     0.000883  f :     0.004994
      f+1     :     0.001015
      f-1     :     0.000745
      f+2     :     0.000391
      f-2     :     0.000421
      f+3     :     0.000409
      f-3     :     0.001130
 10 H s       :     0.667257  s :     0.667257
      pz      :     0.081715  p :     0.161806
      px      :     0.036657
      py      :     0.043435
 11 H s       :     0.656826  s :     0.656826
      pz      :     0.030498  p :     0.160390
      px      :     0.073687
      py      :     0.056206
 12 O s       :     3.471378  s :     3.471378
      pz      :     1.502256  p :     4.795956
      px      :     1.776036
      py      :     1.517664
      dz2     :     0.021578  d :     0.059603
      dxz     :     0.007863
      dyz     :     0.007199
      dx2y2   :     0.007680
      dxy     :     0.015281
      f0      :     0.000903  f :     0.004983
      f+1     :     0.000721
      f-1     :     0.001025
      f+2     :     0.000391
      f-2     :     0.000417
      f+3     :     0.001151
      f-3     :     0.000375
 13 H s       :     0.674623  s :     0.674623
      pz      :     0.081125  p :     0.160827
      px      :     0.043694
      py      :     0.036009
 14 H s       :     0.675294  s :     0.675294
      pz      :     0.030813  p :     0.159862
      px      :     0.056541
      py      :     0.072509


                      *****************************
                      * MAYER POPULATION ANALYSIS *
                      *****************************

  NA   - Mulliken gross atomic population
  ZA   - Total nuclear charge
  QA   - Mulliken gross atomic charge
  VA   - Mayer's total valence
  BVA  - Mayer's bonded valence
  FA   - Mayer's free valence

  ATOM       NA         ZA         QA         VA         BVA        FA
  0 O      8.7319     8.0000    -0.7319     2.0426     1.6550     0.3876
  1 H      0.6592     1.0000     0.3408     0.9042     0.8574     0.0468
  2 H      0.6321     1.0000     0.3679     0.9120     0.8665     0.0455
  3 O      8.6905     8.0000    -0.6905     2.1009     1.7167     0.3841
  4 H      0.6784     1.0000     0.3216     0.9226     0.8723     0.0503
  5 H      0.6161     1.0000     0.3839     0.9001     0.8575     0.0426
  6 O      8.7174     8.0000    -0.7174     2.0357     1.6499     0.3858
  7 H      0.6846     1.0000     0.3154     0.9209     0.8709     0.0501
  8 H      0.6364     1.0000     0.3636     0.9219     0.8771     0.0448
  9 O      8.6749     8.0000    -0.6749     2.1135     1.7338     0.3797
 10 H      0.6477     1.0000     0.3523     0.8966     0.8501     0.0465
 11 H      0.6281     1.0000     0.3719     0.8790     0.8342     0.0448
 12 O      8.6757     8.0000    -0.6757     2.0881     1.7083     0.3798
 13 H      0.6626     1.0000     0.3374     0.9077     0.8604     0.0473
 14 H      0.6645     1.0000     0.3355     0.9107     0.8631     0.0476

  Mayer bond orders larger than 0.100000
B(  0-O ,  1-H ) :   0.8486 B(  0-O ,  2-H ) :   0.7715 B(  3-O ,  4-H ) :   0.8548 
B(  3-O ,  5-H ) :   0.7906 B(  6-O ,  7-H ) :   0.8640 B(  6-O ,  8-H ) :   0.7883 
B(  9-O , 10-H ) :   0.8401 B(  9-O , 11-H ) :   0.8281 B( 12-O , 13-H ) :   0.8519 
B( 12-O , 14-H ) :   0.8531 


----------------------------------
MP2 DERIVATIVE INTEGRAL GENERATION
----------------------------------


Input Wavefunction Amplitudes       ... 12h2o.su.etal.mol2,5,7,8,11-orca.engrad-mp2.def2tzvp.frozencore.mp2tsaa.tmp
Input Correlated Electron Density   ... 12h2o.su.etal.mol2,5,7,8,11-orca.engrad-mp2.def2tzvp.frozencore.pmp2re
Input Energy Weighted Density       ... 12h2o.su.etal.mol2,5,7,8,11-orca.engrad-mp2.def2tzvp.frozencore.wmp2.tmp
Input SCF Electron Density          ... 12h2o.su.etal.mol2,5,7,8,11-orca.engrad-mp2.def2tzvp.frozencore.scfp

One-Electron Terms    ...
                        ... One-Electron Terms done
Prescreening matrices              ... done

Batch handling in the gradient evaluation:
Memory available                      ... 8000.0 MB
Memory per occupied orbital in Q2     ...    7.1 MB
Memory per occupied orbital in Q3     ...    0.1 MB
Total memory requirement per |i>      ...    7.1 MB
Max. Number of orbitals possible      ...   1121
Number of orbitals treated per batch  ...     20
Number of batches to be done          ...      1
Batch   0: i=    5 ...    24

---------------------------------------
MP2 TOTAL ENERGY:     -381.590853778 Eh
---------------------------------------

The final MP2 gradient
  0:  -0.00678679  -0.00784304  -0.00319569
  1:  -0.00009165  -0.00065327   0.00078219
  2:   0.00661026   0.01692203   0.00368612
  3:  -0.00971254  -0.01742087  -0.00223425
  4:   0.00652978   0.01931179  -0.00233872
  5:   0.00168256  -0.00170329   0.00514820
  6:  -0.00113111   0.00007966  -0.01227481
  7:  -0.00271717   0.00001126   0.01072137
  8:   0.00714889  -0.00148521   0.00016375
  9:   0.00523494  -0.00964029  -0.01003134
 10:  -0.00024082  -0.00172988   0.00775193
 11:  -0.00658440   0.00363153   0.00088365
 12:   0.00650395   0.00666003   0.00779091
 13:  -0.00060280   0.00346651  -0.00818131
 14:  -0.00584312  -0.00960695   0.00132800

-----------------------------------
NORM OF THE MP2 GRADIENT:  0.048399
-----------------------------------

-------------------------   --------------------
FINAL SINGLE POINT ENERGY      -381.590853778211
-------------------------   --------------------


                            ***************************************
                            *     ORCA property calculations      *
                            ***************************************

                                    ---------------------
                                    Active property flags
                                    ---------------------
   (+) Dipole Moment


------------------------------------------------------------------------------
                       ORCA ELECTRIC PROPERTIES CALCULATION
------------------------------------------------------------------------------

Dipole Moment Calculation                       ... on
Quadrupole Moment Calculation                   ... off
Polarizability Calculation                      ... off
GBWName                                         ... 12h2o.su.etal.mol2,5,7,8,11-orca.engrad-mp2.def2tzvp.frozencore.gbw
Electron density file                           ... 12h2o.su.etal.mol2,5,7,8,11-orca.engrad-mp2.def2tzvp.frozencore.scfp
The origin for moment calculation is the CENTER OF MASS  = ( 0.423222, -0.716557 -1.062357)

-------------
DIPOLE MOMENT
-------------
                                X             Y             Z
Electronic contribution:      0.23410       0.09313      -0.22028
Nuclear contribution   :      0.56686       0.42012      -0.63259
                        -----------------------------------------
Total Dipole Moment    :      0.80096       0.51325      -0.85287
                        -----------------------------------------
Magnitude (a.u.)       :      1.27764
Magnitude (Debye)      :      3.24749



--------------------
Rotational spectrum 
--------------------
 
Rotational constants in cm-1:     0.081951     0.028775     0.024788 
Rotational constants in MHz :  2456.830929   862.641670   743.124230 

 Dipole components along the rotational axes: 
x,y,z [a.u.] :    -0.887113    -0.916839     0.069207 
x,y,z [Debye]:    -2.254862    -2.330421     0.175910 

 

                         *** MP2 UNRELAXED DENSITY ***

------------------------------------------------------------------------------
                       ORCA ELECTRIC PROPERTIES CALCULATION
------------------------------------------------------------------------------

Dipole Moment Calculation                       ... on
Quadrupole Moment Calculation                   ... off
Polarizability Calculation                      ... off
GBWName                                         ... 12h2o.su.etal.mol2,5,7,8,11-orca.engrad-mp2.def2tzvp.frozencore.gbw
Electron density file                           ... 12h2o.su.etal.mol2,5,7,8,11-orca.engrad-mp2.def2tzvp.frozencore.pmp2ur
The origin for moment calculation is the CENTER OF MASS  = ( 0.423222, -0.716557 -1.062357)

-------------
DIPOLE MOMENT
-------------
                                X             Y             Z
Electronic contribution:      0.23162       0.08987      -0.21860
Nuclear contribution   :      0.56686       0.42012      -0.63259
                        -----------------------------------------
Total Dipole Moment    :      0.79848       0.50999      -0.85119
                        -----------------------------------------
Magnitude (a.u.)       :      1.27365
Magnitude (Debye)      :      3.23737



--------------------
Rotational spectrum 
--------------------
 
Rotational constants in cm-1:     0.081951     0.028775     0.024788 
Rotational constants in MHz :  2456.830929   862.641670   743.124230 

 Dipole components along the rotational axes: 
x,y,z [a.u.] :    -0.885724    -0.912641     0.069058 
x,y,z [Debye]:    -2.251333    -2.319749     0.175531 

 

                           *** MP2 RELAXED DENSITY ***

------------------------------------------------------------------------------
                       ORCA ELECTRIC PROPERTIES CALCULATION
------------------------------------------------------------------------------

Dipole Moment Calculation                       ... on
Quadrupole Moment Calculation                   ... off
Polarizability Calculation                      ... off
GBWName                                         ... 12h2o.su.etal.mol2,5,7,8,11-orca.engrad-mp2.def2tzvp.frozencore.gbw
Electron density file                           ... 12h2o.su.etal.mol2,5,7,8,11-orca.engrad-mp2.def2tzvp.frozencore.pmp2re
The origin for moment calculation is the CENTER OF MASS  = ( 0.423222, -0.716557 -1.062357)

-------------
DIPOLE MOMENT
-------------
                                X             Y             Z
Electronic contribution:      0.24037       0.09615      -0.23124
Nuclear contribution   :      0.56686       0.42012      -0.63259
                        -----------------------------------------
Total Dipole Moment    :      0.80723       0.51626      -0.86383
                        -----------------------------------------
Magnitude (a.u.)       :      1.29010
Magnitude (Debye)      :      3.27917



--------------------
Rotational spectrum 
--------------------
 
Rotational constants in cm-1:     0.081951     0.028775     0.024788 
Rotational constants in MHz :  2456.830929   862.641670   743.124230 

 Dipole components along the rotational axes: 
x,y,z [a.u.] :    -0.898070    -0.923691     0.067972 
x,y,z [Debye]:    -2.282712    -2.347837     0.172772 

 

Timings for individual modules:

Sum of individual times         ...       27.356 sec (=   0.456 min)
GTO integral calculation        ...        0.818 sec (=   0.014 min)   3.0 %
SCF iterations                  ...        7.096 sec (=   0.118 min)  25.9 %
MP2 module                      ...       19.441 sec (=   0.324 min)  71.1 %
                             ****ORCA TERMINATED NORMALLY****
TOTAL RUN TIME: 0 days 0 hours 0 minutes 28 seconds 240 msec
