
                                 *****************
                                 * O   R   C   A *
                                 *****************

           --- An Ab Initio, DFT and Semiempirical electronic structure package ---

                  #######################################################
                  #                        -***-                        #
                  #          Department of theory and spectroscopy      #
                  #               Directorship: Frank Neese             #
                  #        Max Planck Institute fuer Kohlenforschung    #
                  #                Kaiser Wilhelm Platz 1               #
                  #                 D-45470 Muelheim/Ruhr               #
                  #                      Germany                        #
                  #                                                     #
                  #                  All rights reserved                #
                  #                        -***-                        #
                  #######################################################


                         Program Version 4.2.0 -  RELEASE  -


 With contributions from (in alphabetic order):
   Daniel Aravena         : Magnetic Suceptibility
   Michael Atanasov       : Ab Initio Ligand Field Theory (pilot matlab implementation)
   Alexander A. Auer      : GIAO ZORA, VPT2
   Ute Becker             : Parallelization
   Giovanni Bistoni       : ED, misc. LED, open-shell LED, HFLED
   Martin Brehm           : Molecular dynamics
   Dmytro Bykov           : SCF Hessian
   Vijay G. Chilkuri      : MRCI spin determinant printing, contributions to CSF-ICE
   Dipayan Datta          : RHF DLPNO-CCSD density
   Achintya Kumar Dutta   : EOM-CC, STEOM-CC
   Dmitry Ganyushin       : Spin-Orbit,Spin-Spin,Magnetic field MRCI
   Miquel Garcia          : C-PCM Hessian, Gaussian charge scheme
   Yang Guo               : DLPNO-NEVPT2, CIM, IAO-localization
   Andreas Hansen         : Spin unrestricted coupled pair/coupled cluster methods
   Benjamin Helmich-Paris : CASSCF linear response (MC-RPA)
   Lee Huntington         : MR-EOM, pCC
   Robert Izsak           : Overlap fitted RIJCOSX, COSX-SCS-MP3, EOM
   Christian Kollmar      : KDIIS, OOCD, Brueckner-CCSD(T), CCSD density
   Simone Kossmann        : Meta GGA functionals, TD-DFT gradient, OOMP2, MP2 Hessian
   Martin Krupicka        : AUTO-CI
   Lucas Lang             : DCDCAS
   Dagmar Lenk            : GEPOL surface, SMD
   Dimitrios Liakos       : Extrapolation schemes; Compound Job, initial MDCI parallelization
   Dimitrios Manganas     : Further ROCIS development; embedding schemes
   Dimitrios Pantazis     : SARC Basis sets
   Taras Petrenko         : DFT Hessian,TD-DFT gradient, ASA, ECA, R-Raman, ABS, FL, XAS/XES, NRVS
   Peter Pinski           : DLPNO-MP2, DLPNO-MP2 Gradient
   Christoph Reimann      : Effective Core Potentials
   Marius Retegan         : Local ZFS, SOC
   Christoph Riplinger    : Optimizer, TS searches, QM/MM, DLPNO-CCSD(T), (RO)-DLPNO pert. Triples
   Tobias Risthaus        : Range-separated hybrids, TD-DFT gradient, RPA, STAB
   Michael Roemelt        : Original ROCIS implementation
   Masaaki Saitow         : Open-shell DLPNO-CCSD energy and density
   Barbara Sandhoefer     : DKH picture change effects
   Avijit Sen             : IP-ROCIS
   Kantharuban Sivalingam : CASSCF convergence, NEVPT2, FIC-MRCI
   Bernardo de Souza      : ESD, SOC TD-DFT
   Georgi Stoychev        : AutoAux, RI-MP2 NMR
   Willem Van den Heuvel  : Paramagnetic NMR
   Boris Wezisla          : Elementary symmetry handling
   Frank Wennmohs         : Technical directorship


 We gratefully acknowledge several colleagues who have allowed us to
 interface, adapt or use parts of their codes:
   Stefan Grimme, W. Hujo, H. Kruse,             : VdW corrections, initial TS optimization,
                  C. Bannwarth                     DFT functionals, gCP, sTDA/sTD-DF
   Ed Valeev, F. Pavosevic, A. Kumar             : LibInt (2-el integral package), F12 methods
   Garnet Chan, S. Sharma, J. Yang, R. Olivares  : DMRG
   Ulf Ekstrom                                   : XCFun DFT Library
   Mihaly Kallay                                 : mrcc  (arbitrary order and MRCC methods)
   Andreas Klamt, Michael Diedenhofen            : otool_cosmo (COSMO solvation model)
   Jiri Pittner, Ondrej Demel                    : Mk-CCSD
   Frank Weinhold                                : gennbo (NPA and NBO analysis)
   Christopher J. Cramer and Donald G. Truhlar   : smd solvation model
   Lars Goerigk                                  : TD-DFT with DH, B97 family of functionals
   V. Asgeirsson, H. Jonsson                     : NEB implementation
   FAccTs GmbH                                   : IRC, NEB, NEB-TS, Multilevel, MM, QM/MM, CI optimization
   S Lehtola, MJT Oliveira, MAL Marques          : LibXC Library


 Your calculation uses the libint2 library for the computation of 2-el integrals
 For citations please refer to: http://libint.valeyev.net

 Your ORCA version has been built with support for libXC version: 4.2.3
 For citations please refer to: https://tddft.org/programs/libxc/

 This ORCA versions uses:
   CBLAS   interface :  Fast vector & matrix operations
   LAPACKE interface :  Fast linear algebra routines
   SCALAPACK package :  Parallel linear algebra routines


----- Orbital basis set information -----
Your calculation utilizes the basis: def2-TZVP
   F. Weigend and R. Ahlrichs, Phys. Chem. Chem. Phys. 7, 3297 (2005).

================================================================================
                                        WARNINGS
                       Please study these warnings very carefully!
================================================================================


WARNING: The frozen-core approximation for MP2-gradient calculations is turned on by default.

INFO   : the flag for use of LIBINT has been found!

================================================================================
                                       INPUT FILE
================================================================================
NAME = 12meoh.boyd.etal.mol6,7,8-orca.engrad-mp2.def2tzvp.frozencore.inp
|  1> # 12meoh.boyd.etal.mol6,7,8
|  2> ! MP2 def2-TZVP EnGrad TightSCF
|  3> 
|  4> %pal
|  5>     nprocs 6
|  6> end
|  7> 
|  8> %maxcore 8000
|  9> 
| 10> %scf
| 11>     ConvForced true
| 12> end
| 13> 
| 14> *xyz 0 1
| 15> O   2.622209273  -1.703002590  -1.445859723
| 16> H   1.828551432  -1.986513781  -0.909754968
| 17> C   2.781117675  -2.615822239  -2.525472890
| 18> H   3.691063626  -2.339003544  -3.065143454
| 19> H   1.934727323  -2.559520367  -3.223226661
| 20> H   2.879948338  -3.653846211  -2.177750170
| 21> O   4.310535586  -1.588322800   0.656128299
| 22> H   3.804372199  -1.630404735  -0.196849819
| 23> C   4.312298137  -2.894980854   1.222112691
| 24> H   4.713177833  -2.819907076   2.237066773
| 25> H   4.957796734  -3.574699304   0.648211180
| 26> H   3.302735989  -3.324433205   1.269756773
| 27> O   3.570084754   2.361662577  -0.202416728
| 28> H   3.393280933   1.755669977   0.560634073
| 29> C   4.368082883   1.644741793  -1.143112807
| 30> H   4.552851717   2.311801738  -1.989632421
| 31> H   3.862427494   0.740851663  -1.508095690
| 32> H   5.333949674   1.357289092  -0.706288100
| 33> *
| 34> 
| 35>                          ****END OF INPUT****
================================================================================

                     *******************************
                     * Energy+Gradient Calculation *
                     *******************************

---------------------------------
CARTESIAN COORDINATES (ANGSTROEM)
---------------------------------
  O      2.622209   -1.703003   -1.445860
  H      1.828551   -1.986514   -0.909755
  C      2.781118   -2.615822   -2.525473
  H      3.691064   -2.339004   -3.065143
  H      1.934727   -2.559520   -3.223227
  H      2.879948   -3.653846   -2.177750
  O      4.310536   -1.588323    0.656128
  H      3.804372   -1.630405   -0.196850
  C      4.312298   -2.894981    1.222113
  H      4.713178   -2.819907    2.237067
  H      4.957797   -3.574699    0.648211
  H      3.302736   -3.324433    1.269757
  O      3.570085    2.361663   -0.202417
  H      3.393281    1.755670    0.560634
  C      4.368083    1.644742   -1.143113
  H      4.552852    2.311802   -1.989632
  H      3.862427    0.740852   -1.508096
  H      5.333950    1.357289   -0.706288

----------------------------
CARTESIAN COORDINATES (A.U.)
----------------------------
  NO LB      ZA    FRAG     MASS         X           Y           Z
   0 O     8.0000    0    15.999    4.955257   -3.218209   -2.732279
   1 H     1.0000    0     1.008    3.455461   -3.753967   -1.719188
   2 C     6.0000    0    12.011    5.255551   -4.943188   -4.772452
   3 H     1.0000    0     1.008    6.975099   -4.420076   -5.792282
   4 H     1.0000    0     1.008    3.656105   -4.836793   -6.091016
   5 H     1.0000    0     1.008    5.442314   -6.904769   -4.115351
   6 O     8.0000    0    15.999    8.145732   -3.001495    1.239903
   7 H     1.0000    0     1.008    7.189222   -3.081018   -0.371992
   8 C     6.0000    0    12.011    8.149062   -5.470721    2.309458
   9 H     1.0000    0     1.008    8.906615   -5.328852    4.227444
  10 H     1.0000    0     1.008    9.368878   -6.755203    1.224942
  11 H     1.0000    0     1.008    6.241267   -6.282268    2.399493
  12 O     8.0000    0    15.999    6.746482    4.462895   -0.382512
  13 H     1.0000    0     1.008    6.412372    3.317735    1.059445
  14 C     6.0000    0    12.011    8.254480    3.108112   -2.160170
  15 H     1.0000    0     1.008    8.603643    4.368672   -3.759860
  16 H     1.0000    0     1.008    7.298930    1.400007   -2.849888
  17 H     1.0000    0     1.008   10.079704    2.564905   -1.334691

--------------------------------
INTERNAL COORDINATES (ANGSTROEM)
--------------------------------
 O      0   0   0     0.000000000000     0.00000000     0.00000000
 H      1   0   0     0.998839162396     0.00000000     0.00000000
 C      1   2   0     1.422693284649   108.29633387     0.00000000
 H      3   1   2     1.093560488172   107.75927006   183.87350364
 H      3   1   2     1.098365537375   111.29143095    65.22072708
 H      3   1   2     1.099168938972   112.08005485   303.40692948
 O      1   2   3     2.698509002771    95.22757230   232.38467022
 H      7   1   2     0.992745653921     8.07909156   163.52865269
 C      7   1   2     1.423972158666   105.74664394    58.72872497
 H      9   7   1     1.093833804276   107.83521386   197.90029185
 H      9   7   1     1.099112621312   111.14100782    79.50941899
 H      9   7   1     1.098141617007   112.02184717   317.68387993
 O      8   7   9     3.998940237225    89.35546632   164.92806886
 H     13   8   7     0.990319719728    53.02422335   313.69274294
 C     13   8   7     1.426774522293    57.76025055   110.53103754
 H     15  13   8     1.093482486887   107.36091639   160.15343741
 H     15  13   8     1.098142633914   112.03586382    40.73349782
 H     15  13   8     1.098336714270   111.16969712   278.80180802

---------------------------
INTERNAL COORDINATES (A.U.)
---------------------------
 O      0   0   0     0.000000000000     0.00000000     0.00000000
 H      1   0   0     1.887532468764     0.00000000     0.00000000
 C      1   2   0     2.688500680556   108.29633387     0.00000000
 H      3   1   2     2.066529833522   107.75927006   183.87350364
 H      3   1   2     2.075610060577   111.29143095    65.22072708
 H      3   1   2     2.077128269569   112.08005485   303.40692948
 O      1   2   3     5.099442985157    95.22757230   232.38467022
 H      7   1   2     1.876017406552     8.07909156   163.52865269
 C      7   1   2     2.690917402208   105.74664394    58.72872497
 H      9   7   1     2.067046326107   107.83521386   197.90029185
 H      9   7   1     2.077021844616   111.14100782    79.50941899
 H      9   7   1     2.075186912405   112.02184717   317.68387993
 O      8   7   9     7.556901874274    89.35546632   164.92806886
 H     13   8   7     1.871433055307    53.02422335   313.69274294
 C     13   8   7     2.696213101990    57.76025055   110.53103754
 H     15  13   8     2.066382432455   107.36091639   160.15343741
 H     15  13   8     2.075188834080   112.03586382    40.73349782
 H     15  13   8     2.075555592802   111.16969712   278.80180802

---------------------
BASIS SET INFORMATION
---------------------
There are 3 groups of distinct atoms

 Group   1 Type O   : 11s6p2d1f contracted to 5s3p2d1f pattern {62111/411/11/1}
 Group   2 Type H   : 5s1p contracted to 3s1p pattern {311/1}
 Group   3 Type C   : 11s6p2d1f contracted to 5s3p2d1f pattern {62111/411/11/1}

Atom   0O    basis set group =>   1
Atom   1H    basis set group =>   2
Atom   2C    basis set group =>   3
Atom   3H    basis set group =>   2
Atom   4H    basis set group =>   2
Atom   5H    basis set group =>   2
Atom   6O    basis set group =>   1
Atom   7H    basis set group =>   2
Atom   8C    basis set group =>   3
Atom   9H    basis set group =>   2
Atom  10H    basis set group =>   2
Atom  11H    basis set group =>   2
Atom  12O    basis set group =>   1
Atom  13H    basis set group =>   2
Atom  14C    basis set group =>   3
Atom  15H    basis set group =>   2
Atom  16H    basis set group =>   2
Atom  17H    basis set group =>   2


           ************************************************************
           *        Program running with 6 parallel MPI-processes     *
           *              working on a common directory               *
           ************************************************************
------------------------------------------------------------------------------
                           ORCA GTO INTEGRAL CALCULATION
------------------------------------------------------------------------------

                         BASIS SET STATISTICS AND STARTUP INFO

 # of primitive gaussian shells          ...  192
 # of primitive gaussian functions       ...  372
 # of contracted shells                  ...  114
 # of contracted basis functions         ...  258
 Highest angular momentum                ...    3
 Maximum contraction depth               ...    6
 Integral package used                   ... LIBINT
 Integral threshhold            Thresh   ...  2.500e-11
 Primitive cut-off              TCut     ...  2.500e-12


------------------------------ INTEGRAL EVALUATION ----------------------------


 * One electron integrals 
 Pre-screening matrix                    ... done
 Shell pair data                         ... done (   0.001 sec)



           ************************************************************
           *        Program running with 6 parallel MPI-processes     *
           *              working on a common directory               *
           ************************************************************
-------------------------------------------------------------------------------
                                 ORCA SCF
-------------------------------------------------------------------------------

------------
SCF SETTINGS
------------
Hamiltonian:
 Ab initio Hamiltonian  Method          .... Hartree-Fock(GTOs)


General Settings:
 Integral files         IntName         .... 12meoh.boyd.etal.mol6,7,8-orca.engrad-mp2.def2tzvp.frozencore
 Hartree-Fock type      HFTyp           .... RHF
 Total Charge           Charge          ....    0
 Multiplicity           Mult            ....    1
 Number of Electrons    NEL             ....   54
 Basis Dimension        Dim             ....  258
 Nuclear Repulsion      ENuc            ....    246.9140538025 Eh

Convergence Acceleration:
 DIIS                   CNVDIIS         .... on
   Start iteration      DIISMaxIt       ....    12
   Startup error        DIISStart       ....  0.200000
   # of expansion vecs  DIISMaxEq       ....     5
   Bias factor          DIISBfac        ....   1.050
   Max. coefficient     DIISMaxC        ....  10.000
 Newton-Raphson         CNVNR           .... off
 SOSCF                  CNVSOSCF        .... on
   Start iteration      SOSCFMaxIt      ....   150
   Startup grad/error   SOSCFStart      ....  0.003300
 Level Shifting         CNVShift        .... on
   Level shift para.    LevelShift      ....    0.2500
   Turn off err/grad.   ShiftErr        ....    0.0010
 Zerner damping         CNVZerner       .... off
 Static damping         CNVDamp         .... on
   Fraction old density DampFac         ....    0.7000
   Max. Damping (<1)    DampMax         ....    0.9800
   Min. Damping (>=0)   DampMin         ....    0.0000
   Turn off err/grad.   DampErr         ....    0.1000
 Fernandez-Rico         CNVRico         .... off

SCF Procedure:
 Maximum # iterations   MaxIter         ....   125
 SCF integral mode      SCFMode         .... Direct
   Integral package                     .... LIBINT
 Reset frequency        DirectResetFreq ....    20
 Integral Threshold     Thresh          ....  2.500e-11 Eh
 Primitive CutOff       TCut            ....  2.500e-12 Eh

Convergence Tolerance:
 Convergence Check Mode ConvCheckMode   .... Total+1el-Energy
 Convergence forced     ConvForced      .... 1
 Energy Change          TolE            ....  1.000e-08 Eh
 1-El. energy change                    ....  1.000e-05 Eh
 Orbital Gradient       TolG            ....  1.000e-05
 Orbital Rotation angle TolX            ....  1.000e-05
 DIIS Error             TolErr          ....  5.000e-07


Diagonalization of the overlap matrix:
Smallest eigenvalue                        ... 1.158e-03
Time for diagonalization                   ...    0.010 sec
Threshold for overlap eigenvalues          ... 1.000e-08
Number of eigenvalues below threshold      ... 0
Time for construction of square roots      ...    0.005 sec
Total time needed                          ...    0.015 sec

-------------------
DFT GRID GENERATION
-------------------

General Integration Accuracy     IntAcc      ...  4.340
Radial Grid Type                 RadialGrid  ... Gauss-Chebyshev
Angular Grid (max. acc.)         AngularGrid ... Lebedev-110
Angular grid pruning method      GridPruning ... 3 (G Style)
Weight generation scheme         WeightScheme... Becke
Basis function cutoff            BFCut       ...    1.0000e-11
Integration weight cutoff        WCut        ...    1.0000e-14
Grids for H and He will be reduced by one unit

# of grid points (after initial pruning)     ...  19644 (   0.0 sec)
# of grid points (after weights+screening)   ...  18428 (   0.0 sec)
nearest neighbour list constructed           ...    0.0 sec
Grid point re-assignment to atoms done       ...    0.0 sec
Grid point division into batches done        ...    0.0 sec
Reduced shell lists constructed in    0.0 sec

Total number of grid points                  ...    18428
Total number of batches                      ...      296
Average number of points per batch           ...       62
Average number of grid points per atom       ...     1024
Average number of shells per batch           ...    73.27 (64.28%)
Average number of basis functions per batch  ...   159.82 (61.95%)
Average number of large shells per batch     ...    55.45 (75.68%)
Average number of large basis fcns per batch ...   118.20 (73.95%)
Maximum spatial batch extension              ...  15.38, 16.09, 16.95 au
Average spatial batch extension              ...   0.55,  0.57,  0.51 au

Time for grid setup =    0.057 sec

------------------------------
INITIAL GUESS: MODEL POTENTIAL
------------------------------
Loading Hartree-Fock densities                     ... done
Calculating cut-offs                               ... done
Setting up the integral package                    ... done
Initializing the effective Hamiltonian             ... done
Starting the Coulomb interaction                   ... done (   0.0 sec)
Reading the grid                                   ... done
Mapping shells                                     ... done
Starting the XC term evaluation                    ... done (   0.0 sec)
Transforming the Hamiltonian                       ... done (   0.0 sec)
Diagonalizing the Hamiltonian                      ... done (   0.0 sec)
Back transforming the eigenvectors                 ... done (   0.0 sec)
Now organizing SCF variables                       ... done
                      ------------------
                      INITIAL GUESS DONE (   0.2 sec)
                      ------------------
--------------
SCF ITERATIONS
--------------
ITER       Energy         Delta-E        Max-DP      RMS-DP      [F,P]     Damp
               ***  Starting incremental Fock matrix formation  ***
  0   -344.9300155149   0.000000000000 0.03731830  0.00076261  0.2925762 0.7000
  1   -345.0535503090  -0.123534794064 0.02498697  0.00056966  0.2187423 0.7000
                               ***Turning on DIIS***
  2   -345.1256665836  -0.072116274572 0.01419056  0.00035601  0.1627531 0.7000
  3   -345.9847334889  -0.859066905359 0.00806288  0.00020349  0.1199550 0.7000
  4   -345.8398381375   0.144895351422 0.01746413  0.00049093  0.0845690 0.0000
  5   -345.3014907785   0.538347359033 0.00181382  0.00006594  0.0055814 0.0000
                      *** Initiating the SOSCF procedure ***
                           *** Shutting down DIIS ***
                      *** Re-Reading the Fockian *** 
                      *** Removing any level shift *** 
ITER      Energy       Delta-E        Grad      Rot      Max-DP    RMS-DP
  6   -345.27891346   0.0225773221  0.000618  0.000618  0.000797  0.000034
               *** Restarting incremental Fock matrix formation ***
  7   -345.27349005   0.0054234077  0.000317  0.000432  0.000447  0.000018
  8   -345.27349725  -0.0000072028  0.000137  0.000314  0.000345  0.000013
  9   -345.27349900  -0.0000017520  0.000030  0.000029  0.000061  0.000002
 10   -345.27349907  -0.0000000617  0.000005  0.000012  0.000022  0.000001
                  ***Gradient check signals convergence***
              ***Rediagonalizing the Fockian in SOSCF/NRSCF***

               *****************************************************
               *                     SUCCESS                       *
               *           SCF CONVERGED AFTER  11 CYCLES          *
               *****************************************************


----------------
TOTAL SCF ENERGY
----------------

Total Energy       :         -345.27349907 Eh           -9395.36956 eV

Components:
Nuclear Repulsion  :          246.91405380 Eh            6718.87298 eV
Electronic Energy  :         -592.18755287 Eh          -16114.24255 eV
One Electron Energy:         -962.75751838 Eh          -26197.96395 eV
Two Electron Energy:          370.56996551 Eh           10083.72141 eV

Virial components:
Potential Energy   :         -689.95190422 Eh          -18774.54579 eV
Kinetic Energy     :          344.67840515 Eh            9379.17623 eV
Virial Ratio       :            2.00172652


---------------
SCF CONVERGENCE
---------------

  Last Energy change         ...   -5.2294e-09  Tolerance :   1.0000e-08
  Last MAX-Density change    ...    5.2164e-06  Tolerance :   1.0000e-07
  Last RMS-Density change    ...    1.5784e-07  Tolerance :   5.0000e-09
  Last Orbital Gradient      ...    1.9445e-06  Tolerance :   1.0000e-05
  Last Orbital Rotation      ...    5.4635e-06  Tolerance :   1.0000e-05

             **** THE GBW FILE WAS UPDATED (12meoh.boyd.etal.mol6,7,8-orca.engrad-mp2.def2tzvp.frozencore.gbw) ****
             **** DENSITY FILE WAS UPDATED (12meoh.boyd.etal.mol6,7,8-orca.engrad-mp2.def2tzvp.frozencore.scfp) ****
             **** ENERGY FILE WAS UPDATED (12meoh.boyd.etal.mol6,7,8-orca.engrad-mp2.def2tzvp.frozencore.en.tmp) ****
             **** THE GBW FILE WAS UPDATED (12meoh.boyd.etal.mol6,7,8-orca.engrad-mp2.def2tzvp.frozencore.gbw) ****
             **** DENSITY FILE WAS UPDATED (12meoh.boyd.etal.mol6,7,8-orca.engrad-mp2.def2tzvp.frozencore.scfp) ****
----------------
ORBITAL ENERGIES
----------------

  NO   OCC          E(Eh)            E(eV) 
   0   2.0000     -20.598249      -560.5068 
   1   2.0000     -20.537570      -558.8557 
   2   2.0000     -20.529299      -558.6306 
   3   2.0000     -11.297869      -307.4306 
   4   2.0000     -11.263869      -306.5055 
   5   2.0000     -11.250608      -306.1446 
   6   2.0000      -1.390580       -37.8396 
   7   2.0000      -1.327033       -36.1104 
   8   2.0000      -1.326040       -36.0834 
   9   2.0000      -0.950125       -25.8542 
  10   2.0000      -0.910066       -24.7642 
  11   2.0000      -0.899565       -24.4784 
  12   2.0000      -0.719445       -19.5771 
  13   2.0000      -0.689194       -18.7539 
  14   2.0000      -0.661841       -18.0096 
  15   2.0000      -0.641538       -17.4571 
  16   2.0000      -0.621288       -16.9061 
  17   2.0000      -0.605538       -16.4775 
  18   2.0000      -0.596186       -16.2231 
  19   2.0000      -0.576130       -15.6773 
  20   2.0000      -0.570298       -15.5186 
  21   2.0000      -0.534957       -14.5569 
  22   2.0000      -0.500484       -13.6189 
  23   2.0000      -0.481514       -13.1027 
  24   2.0000      -0.468161       -12.7393 
  25   2.0000      -0.431780       -11.7493 
  26   2.0000      -0.429586       -11.6896 
  27   0.0000       0.105718         2.8767 
  28   0.0000       0.148235         4.0337 
  29   0.0000       0.161592         4.3972 
  30   0.0000       0.170718         4.6455 
  31   0.0000       0.188247         5.1225 
  32   0.0000       0.210748         5.7347 
  33   0.0000       0.212909         5.7936 
  34   0.0000       0.223518         6.0822 
  35   0.0000       0.232666         6.3312 
  36   0.0000       0.234401         6.3784 
  37   0.0000       0.247440         6.7332 
  38   0.0000       0.257255         7.0003 
  39   0.0000       0.274780         7.4771 
  40   0.0000       0.281731         7.6663 
  41   0.0000       0.312599         8.5063 
  42   0.0000       0.338759         9.2181 
  43   0.0000       0.344111         9.3637 
  44   0.0000       0.345691         9.4067 
  45   0.0000       0.360708         9.8154 
  46   0.0000       0.410105        11.1595 
  47   0.0000       0.430235        11.7073 
  48   0.0000       0.457707        12.4548 
  49   0.0000       0.491492        13.3742 
  50   0.0000       0.501695        13.6518 
  51   0.0000       0.509859        13.8740 
  52   0.0000       0.550188        14.9714 
  53   0.0000       0.559528        15.2255 
  54   0.0000       0.570215        15.5163 
  55   0.0000       0.594987        16.1904 
  56   0.0000       0.602876        16.4051 
  57   0.0000       0.611223        16.6322 
  58   0.0000       0.624488        16.9932 
  59   0.0000       0.632950        17.2234 
  60   0.0000       0.643552        17.5120 
  61   0.0000       0.646886        17.6027 
  62   0.0000       0.660183        17.9645 
  63   0.0000       0.668219        18.1832 
  64   0.0000       0.685552        18.6548 
  65   0.0000       0.689238        18.7551 
  66   0.0000       0.707378        19.2487 
  67   0.0000       0.714947        19.4547 
  68   0.0000       0.728368        19.8199 
  69   0.0000       0.746924        20.3248 
  70   0.0000       0.754880        20.5413 
  71   0.0000       0.799673        21.7602 
  72   0.0000       0.818298        22.2670 
  73   0.0000       0.842473        22.9248 
  74   0.0000       0.872485        23.7415 
  75   0.0000       0.890507        24.2319 
  76   0.0000       0.899712        24.4824 
  77   0.0000       0.906778        24.6747 
  78   0.0000       0.925103        25.1733 
  79   0.0000       0.945729        25.7346 
  80   0.0000       0.979653        26.6577 
  81   0.0000       1.012443        27.5500 
  82   0.0000       1.044423        28.4202 
  83   0.0000       1.055198        28.7134 
  84   0.0000       1.088350        29.6155 
  85   0.0000       1.105688        30.0873 
  86   0.0000       1.141749        31.0686 
  87   0.0000       1.168159        31.7872 
  88   0.0000       1.189718        32.3739 
  89   0.0000       1.207915        32.8690 
  90   0.0000       1.235545        33.6209 
  91   0.0000       1.266635        34.4669 
  92   0.0000       1.318096        35.8672 
  93   0.0000       1.546102        42.0716 
  94   0.0000       1.560256        42.4567 
  95   0.0000       1.595101        43.4049 
  96   0.0000       1.643026        44.7090 
  97   0.0000       1.678889        45.6849 
  98   0.0000       1.690784        46.0086 
  99   0.0000       1.703781        46.3622 
 100   0.0000       1.728869        47.0449 
 101   0.0000       1.738993        47.3204 
 102   0.0000       1.756699        47.8022 
 103   0.0000       1.765067        48.0299 
 104   0.0000       1.775408        48.3113 
 105   0.0000       1.794233        48.8236 
 106   0.0000       1.801327        49.0166 
 107   0.0000       1.810885        49.2767 
 108   0.0000       1.824000        49.6336 
 109   0.0000       1.830691        49.8156 
 110   0.0000       1.840070        50.0708 
 111   0.0000       1.848142        50.2905 
 112   0.0000       1.851431        50.3800 
 113   0.0000       1.866620        50.7933 
 114   0.0000       1.880418        51.1688 
 115   0.0000       1.888738        51.3952 
 116   0.0000       1.969918        53.6042 
 117   0.0000       1.988646        54.1138 
 118   0.0000       2.014341        54.8130 
 119   0.0000       2.097564        57.0776 
 120   0.0000       2.148269        58.4574 
 121   0.0000       2.159177        58.7542 
 122   0.0000       2.191047        59.6214 
 123   0.0000       2.218847        60.3779 
 124   0.0000       2.226329        60.5815 
 125   0.0000       2.238740        60.9192 
 126   0.0000       2.252531        61.2945 
 127   0.0000       2.278016        61.9880 
 128   0.0000       2.280055        62.0435 
 129   0.0000       2.283458        62.1360 
 130   0.0000       2.297001        62.5046 
 131   0.0000       2.321527        63.1720 
 132   0.0000       2.342853        63.7523 
 133   0.0000       2.351589        63.9900 
 134   0.0000       2.369169        64.4684 
 135   0.0000       2.455590        66.8200 
 136   0.0000       2.465593        67.0922 
 137   0.0000       2.500395        68.0392 
 138   0.0000       2.548567        69.3500 
 139   0.0000       2.571913        69.9853 
 140   0.0000       2.576424        70.1081 
 141   0.0000       2.582589        70.2758 
 142   0.0000       2.593111        70.5621 
 143   0.0000       2.598863        70.7187 
 144   0.0000       2.612236        71.0826 
 145   0.0000       2.618452        71.2517 
 146   0.0000       2.640192        71.8433 
 147   0.0000       2.653950        72.2176 
 148   0.0000       2.677548        72.8598 
 149   0.0000       2.684540        73.0500 
 150   0.0000       2.706521        73.6482 
 151   0.0000       2.717818        73.9556 
 152   0.0000       2.736098        74.4530 
 153   0.0000       2.787028        75.8389 
 154   0.0000       2.813677        76.5640 
 155   0.0000       2.826171        76.9040 
 156   0.0000       2.835472        77.1571 
 157   0.0000       2.859742        77.8175 
 158   0.0000       2.860932        77.8499 
 159   0.0000       2.926031        79.6213 
 160   0.0000       2.938358        79.9568 
 161   0.0000       2.957492        80.4774 
 162   0.0000       3.022530        82.2472 
 163   0.0000       3.071507        83.5799 
 164   0.0000       3.091273        84.1178 
 165   0.0000       3.113890        84.7333 
 166   0.0000       3.121533        84.9412 
 167   0.0000       3.160787        86.0094 
 168   0.0000       3.167848        86.2015 
 169   0.0000       3.196688        86.9863 
 170   0.0000       3.239780        88.1589 
 171   0.0000       3.282782        89.3290 
 172   0.0000       3.308394        90.0260 
 173   0.0000       3.376518        91.8797 
 174   0.0000       3.379472        91.9601 
 175   0.0000       3.390014        92.2470 
 176   0.0000       3.433839        93.4395 
 177   0.0000       3.436505        93.5120 
 178   0.0000       3.450685        93.8979 
 179   0.0000       3.473184        94.5101 
 180   0.0000       3.539363        96.3110 
 181   0.0000       3.563584        96.9701 
 182   0.0000       3.578298        97.3704 
 183   0.0000       3.613043        98.3159 
 184   0.0000       3.642423        99.1154 
 185   0.0000       3.649627        99.3114 
 186   0.0000       3.670187        99.8709 
 187   0.0000       3.689484       100.3960 
 188   0.0000       3.698459       100.6402 
 189   0.0000       3.735896       101.6589 
 190   0.0000       3.743369       101.8622 
 191   0.0000       3.756152       102.2101 
 192   0.0000       3.845688       104.6465 
 193   0.0000       3.864951       105.1707 
 194   0.0000       3.878917       105.5507 
 195   0.0000       3.883947       105.6876 
 196   0.0000       3.887185       105.7757 
 197   0.0000       3.904571       106.2488 
 198   0.0000       3.923655       106.7681 
 199   0.0000       3.927721       106.8787 
 200   0.0000       3.945051       107.3503 
 201   0.0000       4.209288       114.5406 
 202   0.0000       4.303901       117.1151 
 203   0.0000       4.378376       119.1417 
 204   0.0000       4.501960       122.5046 
 205   0.0000       4.514522       122.8464 
 206   0.0000       4.530322       123.2763 
 207   0.0000       4.548734       123.7773 
 208   0.0000       4.567980       124.3011 
 209   0.0000       4.586897       124.8158 
 210   0.0000       4.705058       128.0311 
 211   0.0000       4.730933       128.7352 
 212   0.0000       4.757128       129.4480 
 213   0.0000       4.884421       132.9119 
 214   0.0000       4.890131       133.0672 
 215   0.0000       4.945451       134.5726 
 216   0.0000       5.661433       154.0554 
 217   0.0000       5.712795       155.4531 
 218   0.0000       5.717736       155.5875 
 219   0.0000       5.752661       156.5379 
 220   0.0000       5.796104       157.7200 
 221   0.0000       5.798320       157.7803 
 222   0.0000       5.845194       159.0558 
 223   0.0000       5.898620       160.5096 
 224   0.0000       5.918804       161.0588 
 225   0.0000       6.137499       167.0098 
 226   0.0000       6.152962       167.4306 
 227   0.0000       6.176767       168.0784 
 228   0.0000       6.187964       168.3830 
 229   0.0000       6.190834       168.4612 
 230   0.0000       6.213234       169.0707 
 231   0.0000       6.289556       171.1475 
 232   0.0000       6.344518       172.6431 
 233   0.0000       6.355795       172.9500 
 234   0.0000       6.612322       179.9304 
 235   0.0000       6.692072       182.1005 
 236   0.0000       6.740142       183.4086 
 237   0.0000       6.961657       189.4363 
 238   0.0000       6.969931       189.6615 
 239   0.0000       7.014663       190.8787 
 240   0.0000       7.140388       194.2998 
 241   0.0000       7.176038       195.2699 
 242   0.0000       7.200956       195.9480 
 243   0.0000       7.235890       196.8986 
 244   0.0000       7.239078       196.9853 
 245   0.0000       7.299856       198.6392 
 246   0.0000       7.442908       202.5318 
 247   0.0000       7.480151       203.5452 
 248   0.0000       7.544383       205.2931 
 249   0.0000       7.608386       207.0347 
 250   0.0000       7.618156       207.3006 
 251   0.0000       7.740394       210.6268 
 252   0.0000      23.358214       635.6093 
 253   0.0000      23.384339       636.3202 
 254   0.0000      23.398264       636.6991 
 255   0.0000      45.184873      1229.5429 
 256   0.0000      45.210847      1230.2497 
 257   0.0000      45.317118      1233.1415 

                    ********************************
                    * MULLIKEN POPULATION ANALYSIS *
                    ********************************

-----------------------
MULLIKEN ATOMIC CHARGES
-----------------------
   0 O :   -0.574285
   1 H :    0.351337
   2 C :   -0.092515
   3 H :    0.124701
   4 H :    0.112485
   5 H :    0.107957
   6 O :   -0.583722
   7 H :    0.378187
   8 C :   -0.079410
   9 H :    0.108203
  10 H :    0.085217
  11 H :    0.066689
  12 O :   -0.561998
  13 H :    0.334898
  14 C :   -0.068374
  15 H :    0.099507
  16 H :    0.095064
  17 H :    0.096058
Sum of atomic charges:   -0.0000000

--------------------------------
MULLIKEN REDUCED ORBITAL CHARGES
--------------------------------
  0 O s       :     3.804926  s :     3.804926
      pz      :     1.480297  p :     4.735778
      px      :     1.581676
      py      :     1.673805
      dz2     :     0.003329  d :     0.031931
      dxz     :     0.007212
      dyz     :     0.010211
      dx2y2   :     0.006430
      dxy     :     0.004748
      f0      :     0.000197  f :     0.001651
      f+1     :     0.000160
      f-1     :     0.000371
      f+2     :     0.000437
      f-2     :     0.000266
      f+3     :     0.000054
      f-3     :     0.000165
  1 H s       :     0.607037  s :     0.607037
      pz      :     0.013544  p :     0.041626
      px      :     0.017094
      py      :     0.010988
  2 C s       :     3.199958  s :     3.199958
      pz      :     0.821062  p :     2.771536
      px      :     1.069165
      py      :     0.881309
      dz2     :     0.022065  d :     0.111973
      dxz     :     0.035023
      dyz     :     0.018355
      dx2y2   :     0.028182
      dxy     :     0.008348
      f0      :     0.001645  f :     0.009048
      f+1     :     0.000551
      f-1     :     0.001690
      f+2     :     0.002493
      f-2     :     0.001501
      f+3     :     0.000477
      f-3     :     0.000692
  3 H s       :     0.853904  s :     0.853904
      pz      :     0.006071  p :     0.021395
      px      :     0.011744
      py      :     0.003580
  4 H s       :     0.866875  s :     0.866875
      pz      :     0.007878  p :     0.020639
      px      :     0.009896
      py      :     0.002866
  5 H s       :     0.871842  s :     0.871842
      pz      :     0.003237  p :     0.020201
      px      :     0.003530
      py      :     0.013433
  6 O s       :     3.800318  s :     3.800318
      pz      :     1.486743  p :     4.750314
      px      :     1.813389
      py      :     1.450181
      dz2     :     0.006951  d :     0.031431
      dxz     :     0.006420
      dyz     :     0.005293
      dx2y2   :     0.009103
      dxy     :     0.003665
      f0      :     0.000162  f :     0.001659
      f+1     :     0.000522
      f-1     :     0.000121
      f+2     :     0.000379
      f-2     :     0.000085
      f+3     :     0.000134
      f-3     :     0.000255
  7 H s       :     0.566374  s :     0.566374
      pz      :     0.026567  p :     0.055439
      px      :     0.019909
      py      :     0.008962
  8 C s       :     3.188583  s :     3.188583
      pz      :     1.010221  p :     2.762649
      px      :     1.016063
      py      :     0.736364
      dz2     :     0.028997  d :     0.119053
      dxz     :     0.012054
      dyz     :     0.023506
      dx2y2   :     0.017534
      dxy     :     0.036961
      f0      :     0.000828  f :     0.009125
      f+1     :     0.000668
      f-1     :     0.001779
      f+2     :     0.001204
      f-2     :     0.001246
      f+3     :     0.001759
      f-3     :     0.001642
  9 H s       :     0.870759  s :     0.870759
      pz      :     0.013433  p :     0.021038
      px      :     0.005163
      py      :     0.002442
 10 H s       :     0.894626  s :     0.894626
      pz      :     0.005884  p :     0.020157
      px      :     0.007462
      py      :     0.006811
 11 H s       :     0.913499  s :     0.913499
      pz      :     0.003212  p :     0.019812
      px      :     0.012381
      py      :     0.004219
 12 O s       :     3.805376  s :     3.805376
      pz      :     1.384742  p :     4.722497
      px      :     1.744796
      py      :     1.592960
      dz2     :     0.003042  d :     0.032398
      dxz     :     0.003947
      dyz     :     0.014825
      dx2y2   :     0.004442
      dxy     :     0.006142
      f0      :     0.000113  f :     0.001727
      f+1     :     0.000342
      f-1     :     0.000400
      f+2     :     0.000312
      f-2     :     0.000368
      f+3     :     0.000086
      f-3     :     0.000107
 13 H s       :     0.622206  s :     0.622206
      pz      :     0.016689  p :     0.042896
      px      :     0.013133
      py      :     0.013074
 14 C s       :     3.188645  s :     3.188645
      pz      :     0.885186  p :     2.756404
      px      :     0.920014
      py      :     0.951204
      dz2     :     0.024604  d :     0.114460
      dxz     :     0.017866
      dyz     :     0.029899
      dx2y2   :     0.022589
      dxy     :     0.019502
      f0      :     0.000931  f :     0.008865
      f+1     :     0.000964
      f-1     :     0.001389
      f+2     :     0.002091
      f-2     :     0.001743
      f+3     :     0.001030
      f-3     :     0.000718
 15 H s       :     0.879642  s :     0.879642
      pz      :     0.010123  p :     0.020851
      px      :     0.003544
      py      :     0.007183
 16 H s       :     0.884570  s :     0.884570
      pz      :     0.004137  p :     0.020366
      px      :     0.005246
      py      :     0.010982
 17 H s       :     0.883691  s :     0.883691
      pz      :     0.004279  p :     0.020251
      px      :     0.012017
      py      :     0.003955


                     *******************************
                     * LOEWDIN POPULATION ANALYSIS *
                     *******************************

----------------------
LOEWDIN ATOMIC CHARGES
----------------------
   0 O :   -0.100506
   1 H :    0.201732
   2 C :   -0.330319
   3 H :    0.107074
   4 H :    0.097607
   5 H :    0.093740
   6 O :   -0.144752
   7 H :    0.166234
   8 C :   -0.348171
   9 H :    0.099257
  10 H :    0.085600
  11 H :    0.079876
  12 O :   -0.135778
  13 H :    0.188566
  14 C :   -0.335950
  15 H :    0.096458
  16 H :    0.088583
  17 H :    0.090749

-------------------------------
LOEWDIN REDUCED ORBITAL CHARGES
-------------------------------
  0 O s       :     3.385731  s :     3.385731
      pz      :     1.461966  p :     4.641576
      px      :     1.521238
      py      :     1.658372
      dz2     :     0.011511  d :     0.069062
      dxz     :     0.019791
      dyz     :     0.018152
      dx2y2   :     0.012280
      dxy     :     0.007329
      f0      :     0.000702  f :     0.004137
      f+1     :     0.000323
      f-1     :     0.000832
      f+2     :     0.000733
      f-2     :     0.000907
      f+3     :     0.000196
      f-3     :     0.000445
  1 H s       :     0.654676  s :     0.654676
      pz      :     0.041180  p :     0.143591
      px      :     0.065340
      py      :     0.037071
  2 C s       :     2.861011  s :     2.861011
      pz      :     0.921077  p :     2.992616
      px      :     1.094673
      py      :     0.976866
      dz2     :     0.085430  d :     0.419080
      dxz     :     0.111782
      dyz     :     0.094458
      dx2y2   :     0.098087
      dxy     :     0.029323
      f0      :     0.013394  f :     0.057612
      f+1     :     0.003487
      f-1     :     0.012840
      f+2     :     0.009918
      f-2     :     0.009548
      f+3     :     0.004167
      f-3     :     0.004257
  3 H s       :     0.833377  s :     0.833377
      pz      :     0.016279  p :     0.059550
      px      :     0.031528
      py      :     0.011743
  4 H s       :     0.843177  s :     0.843177
      pz      :     0.021462  p :     0.059215
      px      :     0.027734
      py      :     0.010019
  5 H s       :     0.847189  s :     0.847189
      pz      :     0.011165  p :     0.059071
      px      :     0.012690
      py      :     0.035216
  6 O s       :     3.384959  s :     3.384959
      pz      :     1.456350  p :     4.690611
      px      :     1.720887
      py      :     1.513374
      dz2     :     0.014584  d :     0.065238
      dxz     :     0.010531
      dyz     :     0.013702
      dx2y2   :     0.015961
      dxy     :     0.010461
      f0      :     0.000273  f :     0.003944
      f+1     :     0.000700
      f-1     :     0.000720
      f+2     :     0.000781
      f-2     :     0.000283
      f+3     :     0.000625
      f-3     :     0.000561
  7 H s       :     0.649703  s :     0.649703
      pz      :     0.091127  p :     0.184063
      px      :     0.064845
      py      :     0.028090
  8 C s       :     2.860542  s :     2.860542
      pz      :     1.049424  p :     2.998653
      px      :     1.076009
      py      :     0.873219
      dz2     :     0.090871  d :     0.431229
      dxz     :     0.036858
      dyz     :     0.087669
      dx2y2   :     0.085379
      dxy     :     0.130452
      f0      :     0.004523  f :     0.057748
      f+1     :     0.002553
      f-1     :     0.012101
      f+2     :     0.009129
      f-2     :     0.008715
      f+3     :     0.010806
      f-3     :     0.009921
  9 H s       :     0.842357  s :     0.842357
      pz      :     0.034475  p :     0.058386
      px      :     0.015605
      py      :     0.008307
 10 H s       :     0.856397  s :     0.856397
      pz      :     0.018128  p :     0.058003
      px      :     0.021296
      py      :     0.018578
 11 H s       :     0.862327  s :     0.862327
      pz      :     0.011875  p :     0.057797
      px      :     0.033250
      py      :     0.012672
 12 O s       :     3.394330  s :     3.394330
      pz      :     1.382005  p :     4.669564
      px      :     1.690923
      py      :     1.596635
      dz2     :     0.012620  d :     0.067799
      dxz     :     0.011096
      dyz     :     0.025241
      dx2y2   :     0.008309
      dxy     :     0.010534
      f0      :     0.000326  f :     0.004085
      f+1     :     0.000609
      f-1     :     0.000950
      f+2     :     0.000954
      f-2     :     0.000621
      f+3     :     0.000296
      f-3     :     0.000329
 13 H s       :     0.665205  s :     0.665205
      pz      :     0.055950  p :     0.146230
      px      :     0.036930
      py      :     0.053349
 14 C s       :     2.862263  s :     2.862263
      pz      :     0.963620  p :     2.995997
      px      :     1.000271
      py      :     1.032105
      dz2     :     0.076757  d :     0.420804
      dxz     :     0.073641
      dyz     :     0.112458
      dx2y2   :     0.080777
      dxy     :     0.077171
      f0      :     0.008798  f :     0.056887
      f+1     :     0.007020
      f-1     :     0.008524
      f+2     :     0.011085
      f-2     :     0.009847
      f+3     :     0.006786
      f-3     :     0.004826
 15 H s       :     0.845269  s :     0.845269
      pz      :     0.025841  p :     0.058273
      px      :     0.011522
      py      :     0.020910
 16 H s       :     0.851754  s :     0.851754
      pz      :     0.013524  p :     0.059664
      px      :     0.016038
      py      :     0.030101
 17 H s       :     0.850436  s :     0.850436
      pz      :     0.013806  p :     0.058815
      px      :     0.032095
      py      :     0.012914


                      *****************************
                      * MAYER POPULATION ANALYSIS *
                      *****************************

  NA   - Mulliken gross atomic population
  ZA   - Total nuclear charge
  QA   - Mulliken gross atomic charge
  VA   - Mayer's total valence
  BVA  - Mayer's bonded valence
  FA   - Mayer's free valence

  ATOM       NA         ZA         QA         VA         BVA        FA
  0 O      8.5743     8.0000    -0.5743     1.7797     1.7797    -0.0000
  1 H      0.6487     1.0000     0.3513     0.8837     0.8837    -0.0000
  2 C      6.0925     6.0000    -0.0925     3.8483     3.8483    -0.0000
  3 H      0.8753     1.0000     0.1247     0.9668     0.9668    -0.0000
  4 H      0.8875     1.0000     0.1125     0.9654     0.9654    -0.0000
  5 H      0.8920     1.0000     0.1080     0.9596     0.9596    -0.0000
  6 O      8.5837     8.0000    -0.5837     1.7422     1.7422     0.0000
  7 H      0.6218     1.0000     0.3782     0.8859     0.8859     0.0000
  8 C      6.0794     6.0000    -0.0794     3.9322     3.9322     0.0000
  9 H      0.8918     1.0000     0.1082     0.9656     0.9656     0.0000
 10 H      0.9148     1.0000     0.0852     0.9607     0.9607     0.0000
 11 H      0.9333     1.0000     0.0667     0.9594     0.9594     0.0000
 12 O      8.5620     8.0000    -0.5620     1.7856     1.7856     0.0000
 13 H      0.6651     1.0000     0.3349     0.8981     0.8981    -0.0000
 14 C      6.0684     6.0000    -0.0684     3.8897     3.8897    -0.0000
 15 H      0.9005     1.0000     0.0995     0.9582     0.9582    -0.0000
 16 H      0.9049     1.0000     0.0951     0.9646     0.9646    -0.0000
 17 H      0.9039     1.0000     0.0961     0.9661     0.9661    -0.0000

  Mayer bond orders larger than 0.100000
B(  0-O ,  1-H ) :   0.8709 B(  0-O ,  2-C ) :   0.8872 B(  2-C ,  3-H ) :   0.9849 
B(  2-C ,  4-H ) :   0.9840 B(  2-C ,  5-H ) :   0.9837 B(  6-O ,  7-H ) :   0.8291 
B(  6-O ,  8-C ) :   0.9530 B(  8-C ,  9-H ) :   0.9882 B(  8-C , 10-H ) :   0.9907 
B(  8-C , 11-H ) :   0.9858 B( 12-O , 13-H ) :   0.8848 B( 12-O , 14-C ) :   0.9263 
B( 14-C , 15-H ) :   0.9821 B( 14-C , 16-H ) :   0.9885 B( 14-C , 17-H ) :   0.9908 


-------
TIMINGS
-------

Total SCF time: 0 days 0 hours 0 min 17 sec 

Total time                  ....      17.008 sec
Sum of individual times     ....      16.752 sec  ( 98.5%)

Fock matrix formation       ....      16.376 sec  ( 96.3%)
Diagonalization             ....       0.077 sec  (  0.5%)
Density matrix formation    ....       0.008 sec  (  0.0%)
Population analysis         ....       0.025 sec  (  0.1%)
Initial guess               ....       0.149 sec  (  0.9%)
Orbital Transformation      ....       0.000 sec  (  0.0%)
Orbital Orthonormalization  ....       0.000 sec  (  0.0%)
DIIS solution               ....       0.028 sec  (  0.2%)
SOSCF solution              ....       0.032 sec  (  0.2%)


           ************************************************************
           *        Program running with 6 parallel MPI-processes     *
           *              working on a common directory               *
           ************************************************************

------------------------------------------------------------------------------
                                ORCA  MP2 
------------------------------------------------------------------------------

Freezing NCore=12 chemical core electrons
MP2 will be done in the AO integral direct mode
The Q1-step will be done using symmetric double matrices
Dimension of the basis                    ...  258
Memory devoted for MP2                    ... 8000 MB   
Memory needed for all in one shot         ...  264 MB
Number of MOs that can be treated together...  120      
MP2 density construction                  ... relaxed
The MP2 gradient is requested => amplitudes will be stored on disk
Total number of MOs              ...   21
Number of MOs treated per batch  ...    4 
Number of batches necessary      ...    1 
OPERATORS   0/  0 PASS   0
-----------------------------------------------
 MP2 CORRELATION ENERGY   :     -1.258855027 Eh
-----------------------------------------------


---------------------
MP2 DENSITY FORMATION
---------------------

Completing the external part of the density      ... done
Storing the unrelaxed density                    ... done

Calculating G(D)                                 ... done
Completing the Lagrangian                        ... done
Solving the Z-vector equations                   ... 

------------------------------------------------------------------------------
                           ORCA CP-SCF CALCULATION
------------------------------------------------------------------------------

Input orbitals are from        ... 12meoh.boyd.etal.mol6,7,8-orca.engrad-mp2.def2tzvp.frozencore.gbw
Input Perturbation             ... 12meoh.boyd.etal.mol6,7,8-orca.engrad-mp2.def2tzvp.frozencore.pin.tmp
Wavefunction output            ... 12meoh.boyd.etal.mol6,7,8-orca.engrad-mp2.def2tzvp.frozencore.pout.tmp
Perturbation mode              ... Real perturbation (singlet)
Solver                         ... POPLE
Max. number of iterations      ... 128
Convergence tolerance          ... 1.000e-08
Integral handling              ... Direct
Number of perturbations        ... 1
Number of operators            ... 1
Orbital ranges used for CP-SCF:
 Operator 0:  Orbitals   0... 26  to  27...257
Variables per vector in CP-SCF ... 6237
Number of vectors sought       ... 1
     CP-SCF ITERATION   0: 
     CP-SCF ITERATION   1:      0.000365620444
     CP-SCF ITERATION   2:      0.000026611728
     CP-SCF ITERATION   3:      0.000004114448
     CP-SCF ITERATION   4:      0.000000179130
     CP-SCF ITERATION   5:      0.000000006586
                                                 ... done
Finalizing the relaxed density                   ... done
Transforming P to the AO basis                   ... done
Storing the relaxed density                      ... done

------------------------------------
ENERGY WEIGHTED DENSITY FINALIZATION
------------------------------------

Gathering the parts of the W-matrix              ...                                                      done
Forming the Z-density                            ... done
Transforming Z to the AO basis                   ... done
Calculating G(Z)                                 ... done
Finalizing the W-matrix                          ...                                                      done
Transforming W to the AO basis and storing       ... done

                *********************************************
                * UNRELAXED MP2 DENSITY POPULATION ANALYSIS *
                *********************************************

------------------------------------------------------------------------------
                           ORCA POPULATION ANALYSIS
------------------------------------------------------------------------------
Input electron density              ... 12meoh.boyd.etal.mol6,7,8-orca.engrad-mp2.def2tzvp.frozencore.pmp2ur
BaseName (.gbw .S,...)              ... 12meoh.boyd.etal.mol6,7,8-orca.engrad-mp2.def2tzvp.frozencore

                    ********************************
                    * MULLIKEN POPULATION ANALYSIS *
                    ********************************

-----------------------
MULLIKEN ATOMIC CHARGES
-----------------------
   0 O :   -0.562438
   1 H :    0.348502
   2 C :   -0.107905
   3 H :    0.127373
   4 H :    0.114911
   5 H :    0.110341
   6 O :   -0.571589
   7 H :    0.373994
   8 C :   -0.096116
   9 H :    0.111019
  10 H :    0.087781
  11 H :    0.069177
  12 O :   -0.550845
  13 H :    0.332149
  14 C :   -0.084370
  15 H :    0.102427
  16 H :    0.097129
  17 H :    0.098461
Sum of atomic charges:   -0.0000000

--------------------------------
MULLIKEN REDUCED ORBITAL CHARGES
--------------------------------
  0 O s       :     3.799704  s :     3.799704
      pz      :     1.468626  p :     4.698369
      px      :     1.569740
      py      :     1.660003
      dz2     :     0.009157  d :     0.060027
      dxz     :     0.012908
      dyz     :     0.015615
      dx2y2   :     0.012020
      dxy     :     0.010326
      f0      :     0.000581  f :     0.004338
      f+1     :     0.000544
      f-1     :     0.000757
      f+2     :     0.000817
      f-2     :     0.000655
      f+3     :     0.000438
      f-3     :     0.000545
  1 H s       :     0.608265  s :     0.608265
      pz      :     0.014056  p :     0.043233
      px      :     0.017338
      py      :     0.011839
  2 C s       :     3.197873  s :     3.197873
      pz      :     0.821125  p :     2.764986
      px      :     1.064296
      py      :     0.879566
      dz2     :     0.026606  d :     0.132673
      dxz     :     0.038894
      dyz     :     0.021568
      dx2y2   :     0.031993
      dxy     :     0.013612
      f0      :     0.002101  f :     0.012373
      f+1     :     0.001113
      f-1     :     0.002097
      f+2     :     0.002889
      f-2     :     0.001997
      f+3     :     0.000994
      f-3     :     0.001182
  3 H s       :     0.848205  s :     0.848205
      pz      :     0.007121  p :     0.024422
      px      :     0.012621
      py      :     0.004680
  4 H s       :     0.861339  s :     0.861339
      pz      :     0.008886  p :     0.023750
      px      :     0.010848
      py      :     0.004016
  5 H s       :     0.866312  s :     0.866312
      pz      :     0.004380  p :     0.023348
      px      :     0.004665
      py      :     0.014303
  6 O s       :     3.795003  s :     3.795003
      pz      :     1.475642  p :     4.712919
      px      :     1.799779
      py      :     1.437497
      dz2     :     0.012550  d :     0.059324
      dxz     :     0.012064
      dyz     :     0.010841
      dx2y2   :     0.014511
      dxy     :     0.009358
      f0      :     0.000546  f :     0.004344
      f+1     :     0.000889
      f-1     :     0.000517
      f+2     :     0.000760
      f-2     :     0.000470
      f+3     :     0.000525
      f-3     :     0.000636
  7 H s       :     0.568792  s :     0.568792
      pz      :     0.026724  p :     0.057215
      px      :     0.020636
      py      :     0.009855
  8 C s       :     3.186760  s :     3.186760
      pz      :     1.007139  p :     2.756948
      px      :     1.012028
      py      :     0.737781
      dz2     :     0.033407  d :     0.139948
      dxz     :     0.017160
      dyz     :     0.027228
      dx2y2   :     0.021186
      dxy     :     0.040968
      f0      :     0.001296  f :     0.012460
      f+1     :     0.001139
      f-1     :     0.002317
      f+2     :     0.001632
      f-2     :     0.001738
      f+3     :     0.002285
      f-3     :     0.002053
  9 H s       :     0.864829  s :     0.864829
      pz      :     0.014315  p :     0.024151
      px      :     0.006251
      py      :     0.003585
 10 H s       :     0.888814  s :     0.888814
      pz      :     0.006975  p :     0.023404
      px      :     0.008517
      py      :     0.007912
 11 H s       :     0.907717  s :     0.907717
      pz      :     0.004393  p :     0.023106
      px      :     0.013333
      py      :     0.005380
 12 O s       :     3.800109  s :     3.800109
      pz      :     1.374898  p :     4.686646
      px      :     1.731589
      py      :     1.580158
      dz2     :     0.008685  d :     0.059708
      dxz     :     0.009552
      dyz     :     0.019893
      dx2y2   :     0.009967
      dxy     :     0.011611
      f0      :     0.000492  f :     0.004383
      f+1     :     0.000709
      f-1     :     0.000781
      f+2     :     0.000698
      f-2     :     0.000749
      f+3     :     0.000467
      f-3     :     0.000488
 13 H s       :     0.623256  s :     0.623256
      pz      :     0.016911  p :     0.044595
      px      :     0.014002
      py      :     0.013681
 14 C s       :     3.186744  s :     3.186744
      pz      :     0.884255  p :     2.750226
      px      :     0.917850
      py      :     0.948122
      dz2     :     0.029341  d :     0.135209
      dxz     :     0.021676
      dyz     :     0.033513
      dx2y2   :     0.027066
      dxy     :     0.023613
      f0      :     0.001414  f :     0.012191
      f+1     :     0.001469
      f-1     :     0.001848
      f+2     :     0.002573
      f-2     :     0.002152
      f+3     :     0.001497
      f-3     :     0.001238
 15 H s       :     0.873580  s :     0.873580
      pz      :     0.011111  p :     0.023993
      px      :     0.004684
      py      :     0.008197
 16 H s       :     0.879335  s :     0.879335
      pz      :     0.005272  p :     0.023537
      px      :     0.006340
      py      :     0.011925
 17 H s       :     0.878109  s :     0.878109
      pz      :     0.005390  p :     0.023430
      px      :     0.012943
      py      :     0.005097


                     *******************************
                     * LOEWDIN POPULATION ANALYSIS *
                     *******************************

----------------------
LOEWDIN ATOMIC CHARGES
----------------------
   0 O :   -0.091367
   1 H :    0.199752
   2 C :   -0.340792
   3 H :    0.108866
   4 H :    0.099170
   5 H :    0.095247
   6 O :   -0.136663
   7 H :    0.163550
   8 C :   -0.359310
   9 H :    0.100981
  10 H :    0.087032
  11 H :    0.081242
  12 O :   -0.127986
  13 H :    0.186717
  14 C :   -0.346753
  15 H :    0.098189
  16 H :    0.089930
  17 H :    0.092198

-------------------------------
LOEWDIN REDUCED ORBITAL CHARGES
-------------------------------
  0 O s       :     3.382248  s :     3.382248
      pz      :     1.449668  p :     4.603512
      px      :     1.509380
      py      :     1.644464
      dz2     :     0.017210  d :     0.098521
      dxz     :     0.025686
      dyz     :     0.024499
      dx2y2   :     0.018084
      dxy     :     0.013043
      f0      :     0.001113  f :     0.007086
      f+1     :     0.000728
      f-1     :     0.001282
      f+2     :     0.001201
      f-2     :     0.001329
      f+3     :     0.000589
      f-3     :     0.000845
  1 H s       :     0.653207  s :     0.653207
      pz      :     0.042203  p :     0.147041
      px      :     0.066766
      py      :     0.038072
  2 C s       :     2.859848  s :     2.859848
      pz      :     0.918050  p :     2.978608
      px      :     1.087999
      py      :     0.972558
      dz2     :     0.089325  d :     0.439862
      dxz     :     0.115565
      dyz     :     0.098384
      dx2y2   :     0.102355
      dxy     :     0.034233
      f0      :     0.013884  f :     0.062474
      f+1     :     0.004179
      f-1     :     0.013624
      f+2     :     0.010969
      f-2     :     0.010097
      f+3     :     0.004775
      f-3     :     0.004946
  3 H s       :     0.826649  s :     0.826649
      pz      :     0.017880  p :     0.064485
      px      :     0.033545
      py      :     0.013060
  4 H s       :     0.836499  s :     0.836499
      pz      :     0.023328  p :     0.064331
      px      :     0.029694
      py      :     0.011310
  5 H s       :     0.840512  s :     0.840512
      pz      :     0.012601  p :     0.064241
      px      :     0.013937
      py      :     0.037703
  6 O s       :     3.381606  s :     3.381606
      pz      :     1.445680  p :     4.653526
      px      :     1.708040
      py      :     1.499806
      dz2     :     0.020375  d :     0.094642
      dxz     :     0.016666
      dyz     :     0.019470
      dx2y2   :     0.022104
      dxy     :     0.016027
      f0      :     0.000692  f :     0.006889
      f+1     :     0.001140
      f-1     :     0.001131
      f+2     :     0.001230
      f-2     :     0.000679
      f+3     :     0.001025
      f-3     :     0.000992
  7 H s       :     0.649425  s :     0.649425
      pz      :     0.092216  p :     0.187025
      px      :     0.065810
      py      :     0.028998
  8 C s       :     2.859478  s :     2.859478
      pz      :     1.043883  p :     2.984840
      px      :     1.069814
      py      :     0.871144
      dz2     :     0.095251  d :     0.452333
      dxz     :     0.042000
      dyz     :     0.091503
      dx2y2   :     0.089597
      dxy     :     0.133981
      f0      :     0.005345  f :     0.062659
      f+1     :     0.003301
      f-1     :     0.012628
      f+2     :     0.009863
      f-2     :     0.009321
      f+3     :     0.011374
      f-3     :     0.010826
  9 H s       :     0.835547  s :     0.835547
      pz      :     0.036841  p :     0.063473
      px      :     0.017001
      py      :     0.009630
 10 H s       :     0.849626  s :     0.849626
      pz      :     0.019752  p :     0.063342
      px      :     0.023000
      py      :     0.020590
 11 H s       :     0.855536  s :     0.855536
      pz      :     0.013179  p :     0.063222
      px      :     0.035698
      py      :     0.014345
 12 O s       :     3.390879  s :     3.390879
      pz      :     1.371727  p :     4.633592
      px      :     1.677941
      py      :     1.583924
      dz2     :     0.018070  d :     0.096523
      dxz     :     0.017102
      dyz     :     0.031182
      dx2y2   :     0.013885
      dxy     :     0.016283
      f0      :     0.000725  f :     0.006993
      f+1     :     0.001012
      f-1     :     0.001398
      f+2     :     0.001372
      f-2     :     0.001076
      f+3     :     0.000688
      f-3     :     0.000722
 13 H s       :     0.663545  s :     0.663545
      pz      :     0.057278  p :     0.149738
      px      :     0.037790
      py      :     0.054670
 14 C s       :     2.861146  s :     2.861146
      pz      :     0.959759  p :     2.982119
      px      :     0.995680
      py      :     1.026680
      dz2     :     0.080737  d :     0.441718
      dxz     :     0.077742
      dyz     :     0.116626
      dx2y2   :     0.085056
      dxy     :     0.081557
      f0      :     0.009413  f :     0.061770
      f+1     :     0.007649
      f-1     :     0.009248
      f+2     :     0.011713
      f-2     :     0.010792
      f+3     :     0.007463
      f-3     :     0.005492
 15 H s       :     0.838430  s :     0.838430
      pz      :     0.027945  p :     0.063381
      px      :     0.012837
      py      :     0.022599
 16 H s       :     0.845177  s :     0.845177
      pz      :     0.015023  p :     0.064893
      px      :     0.017560
      py      :     0.032310
 17 H s       :     0.843768  s :     0.843768
      pz      :     0.015283  p :     0.064035
      px      :     0.034447
      py      :     0.014305


                      *****************************
                      * MAYER POPULATION ANALYSIS *
                      *****************************

  NA   - Mulliken gross atomic population
  ZA   - Total nuclear charge
  QA   - Mulliken gross atomic charge
  VA   - Mayer's total valence
  BVA  - Mayer's bonded valence
  FA   - Mayer's free valence

  ATOM       NA         ZA         QA         VA         BVA        FA
  0 O      8.5624     8.0000    -0.5624     2.0850     1.6745     0.4105
  1 H      0.6515     1.0000     0.3485     0.8900     0.8381     0.0519
  2 C      6.1079     6.0000    -0.1079     3.9559     3.6775     0.2784
  3 H      0.8726     1.0000     0.1274     0.9752     0.9290     0.0462
  4 H      0.8851     1.0000     0.1149     0.9745     0.9266     0.0479
  5 H      0.8897     1.0000     0.1103     0.9689     0.9206     0.0484
  6 O      8.5716     8.0000    -0.5716     2.0479     1.6382     0.4097
  7 H      0.6260     1.0000     0.3740     0.8932     0.8442     0.0490
  8 C      6.0961     6.0000    -0.0961     4.0374     3.7540     0.2834
  9 H      0.8890     1.0000     0.1110     0.9745     0.9273     0.0472
 10 H      0.9122     1.0000     0.0878     0.9707     0.9210     0.0497
 11 H      0.9308     1.0000     0.0692     0.9704     0.9193     0.0511
 12 O      8.5508     8.0000    -0.5508     2.0863     1.6806     0.4057
 13 H      0.6679     1.0000     0.3321     0.9046     0.8523     0.0523
 14 C      6.0844     6.0000    -0.0844     3.9950     3.7160     0.2790
 15 H      0.8976     1.0000     0.1024     0.9675     0.9201     0.0474
 16 H      0.9029     1.0000     0.0971     0.9750     0.9252     0.0499
 17 H      0.9015     1.0000     0.0985     0.9758     0.9267     0.0490

  Mayer bond orders larger than 0.100000
B(  0-O ,  1-H ) :   0.8263 B(  0-O ,  2-C ) :   0.8303 B(  2-C ,  3-H ) :   0.9477 
B(  2-C ,  4-H ) :   0.9462 B(  2-C ,  5-H ) :   0.9456 B(  6-O ,  7-H ) :   0.7893 
B(  6-O ,  8-C ) :   0.8912 B(  8-C ,  9-H ) :   0.9505 B(  8-C , 10-H ) :   0.9519 
B(  8-C , 11-H ) :   0.9469 B( 12-O , 13-H ) :   0.8401 B( 12-O , 14-C ) :   0.8676 
B( 14-C , 15-H ) :   0.9446 B( 14-C , 16-H ) :   0.9499 B( 14-C , 17-H ) :   0.9525 



                *******************************************
                * RELAXED MP2 DENSITY POPULATION ANALYSIS *
                *******************************************

------------------------------------------------------------------------------
                           ORCA POPULATION ANALYSIS
------------------------------------------------------------------------------
Input electron density              ... 12meoh.boyd.etal.mol6,7,8-orca.engrad-mp2.def2tzvp.frozencore.pmp2re
BaseName (.gbw .S,...)              ... 12meoh.boyd.etal.mol6,7,8-orca.engrad-mp2.def2tzvp.frozencore

                    ********************************
                    * MULLIKEN POPULATION ANALYSIS *
                    ********************************

-----------------------
MULLIKEN ATOMIC CHARGES
-----------------------
   0 O :   -0.518444
   1 H :    0.342578
   2 C :   -0.187559
   3 H :    0.145613
   4 H :    0.131241
   5 H :    0.127375
   6 O :   -0.526127
   7 H :    0.355003
   8 C :   -0.181332
   9 H :    0.129198
  10 H :    0.105131
  11 H :    0.085453
  12 O :   -0.512043
  13 H :    0.325719
  14 C :   -0.167086
  15 H :    0.120290
  16 H :    0.110202
  17 H :    0.114788
Sum of atomic charges:   -0.0000000

--------------------------------
MULLIKEN REDUCED ORBITAL CHARGES
--------------------------------
  0 O s       :     3.804560  s :     3.804560
      pz      :     1.456398  p :     4.651384
      px      :     1.552787
      py      :     1.642199
      dz2     :     0.009312  d :     0.058216
      dxz     :     0.012745
      dyz     :     0.014319
      dx2y2   :     0.011680
      dxy     :     0.010160
      f0      :     0.000580  f :     0.004284
      f+1     :     0.000545
      f-1     :     0.000738
      f+2     :     0.000791
      f-2     :     0.000654
      f+3     :     0.000438
      f-3     :     0.000538
  1 H s       :     0.613658  s :     0.613658
      pz      :     0.014094  p :     0.043764
      px      :     0.017104
      py      :     0.012566
  2 C s       :     3.219196  s :     3.219196
      pz      :     0.840937  p :     2.833695
      px      :     1.089506
      py      :     0.903252
      dz2     :     0.027059  d :     0.122857
      dxz     :     0.034896
      dyz     :     0.019036
      dx2y2   :     0.027693
      dxy     :     0.014173
      f0      :     0.001969  f :     0.011810
      f+1     :     0.001096
      f-1     :     0.002002
      f+2     :     0.002750
      f-2     :     0.001914
      f+3     :     0.000942
      f-3     :     0.001138
  3 H s       :     0.831136  s :     0.831136
      pz      :     0.006859  p :     0.023252
      px      :     0.011603
      py      :     0.004790
  4 H s       :     0.846149  s :     0.846149
      pz      :     0.008311  p :     0.022610
      px      :     0.010027
      py      :     0.004272
  5 H s       :     0.850391  s :     0.850391
      pz      :     0.004489  p :     0.022234
      px      :     0.004876
      py      :     0.012869
  6 O s       :     3.793896  s :     3.793896
      pz      :     1.459324  p :     4.670496
      px      :     1.785591
      py      :     1.425582
      dz2     :     0.012129  d :     0.057443
      dxz     :     0.011614
      dyz     :     0.010456
      dx2y2   :     0.013519
      dxy     :     0.009725
      f0      :     0.000536  f :     0.004292
      f+1     :     0.000867
      f-1     :     0.000523
      f+2     :     0.000741
      f-2     :     0.000474
      f+3     :     0.000533
      f-3     :     0.000618
  7 H s       :     0.587686  s :     0.587686
      pz      :     0.025859  p :     0.057311
      px      :     0.020939
      py      :     0.010513
  8 C s       :     3.208112  s :     3.208112
      pz      :     1.032656  p :     2.829708
      px      :     1.042217
      py      :     0.754835
      dz2     :     0.031853  d :     0.131582
      dxz     :     0.016037
      dyz     :     0.024832
      dx2y2   :     0.019388
      dxy     :     0.039472
      f0      :     0.001221  f :     0.011930
      f+1     :     0.001068
      f-1     :     0.002260
      f+2     :     0.001562
      f-2     :     0.001647
      f+3     :     0.002211
      f-3     :     0.001961
  9 H s       :     0.847782  s :     0.847782
      pz      :     0.012995  p :     0.023021
      px      :     0.006244
      py      :     0.003782
 10 H s       :     0.872510  s :     0.872510
      pz      :     0.006742  p :     0.022359
      px      :     0.008100
      py      :     0.007517
 11 H s       :     0.892454  s :     0.892454
      pz      :     0.004620  p :     0.022093
      px      :     0.012100
      py      :     0.005373
 12 O s       :     3.801256  s :     3.801256
      pz      :     1.365530  p :     4.648840
      px      :     1.720281
      py      :     1.563029
      dz2     :     0.008875  d :     0.057619
      dxz     :     0.009178
      dyz     :     0.018187
      dx2y2   :     0.010069
      dxy     :     0.011310
      f0      :     0.000491  f :     0.004327
      f+1     :     0.000706
      f-1     :     0.000760
      f+2     :     0.000694
      f-2     :     0.000724
      f+3     :     0.000466
      f-3     :     0.000486
 13 H s       :     0.629120  s :     0.629120
      pz      :     0.016414  p :     0.045161
      px      :     0.014908
      py      :     0.013839
 14 C s       :     3.210121  s :     3.210121
      pz      :     0.905558  p :     2.820249
      px      :     0.941748
      py      :     0.972943
      dz2     :     0.029624  d :     0.125104
      dxz     :     0.019023
      dyz     :     0.029856
      dx2y2   :     0.025171
      dxy     :     0.021430
      f0      :     0.001342  f :     0.011612
      f+1     :     0.001417
      f-1     :     0.001725
      f+2     :     0.002455
      f-2     :     0.002058
      f+3     :     0.001397
      f-3     :     0.001219
 15 H s       :     0.856821  s :     0.856821
      pz      :     0.010248  p :     0.022889
      px      :     0.004870
      py      :     0.007772
 16 H s       :     0.867334  s :     0.867334
      pz      :     0.005294  p :     0.022464
      px      :     0.006259
      py      :     0.010911
 17 H s       :     0.862903  s :     0.862903
      pz      :     0.005366  p :     0.022309
      px      :     0.011733
      py      :     0.005210


                     *******************************
                     * LOEWDIN POPULATION ANALYSIS *
                     *******************************

----------------------
LOEWDIN ATOMIC CHARGES
----------------------
   0 O :   -0.072494
   1 H :    0.202376
   2 C :   -0.374591
   3 H :    0.116289
   4 H :    0.105702
   5 H :    0.101800
   6 O :   -0.121153
   7 H :    0.157623
   8 C :   -0.394848
   9 H :    0.108299
  10 H :    0.093168
  11 H :    0.087262
  12 O :   -0.114571
  13 H :    0.188851
  14 C :   -0.382193
  15 H :    0.105693
  16 H :    0.094620
  17 H :    0.098167

-------------------------------
LOEWDIN REDUCED ORBITAL CHARGES
-------------------------------
  0 O s       :     3.385324  s :     3.385324
      pz      :     1.444181  p :     4.581300
      px      :     1.502983
      py      :     1.634135
      dz2     :     0.017692  d :     0.098669
      dxz     :     0.025870
      dyz     :     0.023923
      dx2y2   :     0.017965
      dxy     :     0.013220
      f0      :     0.001137  f :     0.007201
      f+1     :     0.000734
      f-1     :     0.001311
      f+2     :     0.001227
      f-2     :     0.001348
      f+3     :     0.000597
      f-3     :     0.000847
  1 H s       :     0.650149  s :     0.650149
      pz      :     0.041972  p :     0.147475
      px      :     0.066624
      py      :     0.038879
  2 C s       :     2.865960  s :     2.865960
      pz      :     0.929792  p :     3.018720
      px      :     1.103116
      py      :     0.985812
      dz2     :     0.089818  d :     0.429070
      dxz     :     0.111726
      dyz     :     0.094641
      dx2y2   :     0.098918
      dxy     :     0.033967
      f0      :     0.013573  f :     0.060840
      f+1     :     0.004014
      f-1     :     0.013331
      f+2     :     0.010683
      f-2     :     0.009760
      f+3     :     0.004648
      f-3     :     0.004831
  3 H s       :     0.818840  s :     0.818840
      pz      :     0.018113  p :     0.064871
      px      :     0.033304
      py      :     0.013454
  4 H s       :     0.829263  s :     0.829263
      pz      :     0.023589  p :     0.065035
      px      :     0.029605
      py      :     0.011841
  5 H s       :     0.833210  s :     0.833210
      pz      :     0.013064  p :     0.064990
      px      :     0.014410
      py      :     0.037517
  6 O s       :     3.384057  s :     3.384057
      pz      :     1.443853  p :     4.635476
      px      :     1.699097
      py      :     1.492526
      dz2     :     0.020354  d :     0.094610
      dxz     :     0.016738
      dyz     :     0.019358
      dx2y2   :     0.021637
      dxy     :     0.016524
      f0      :     0.000702  f :     0.007010
      f+1     :     0.001163
      f-1     :     0.001147
      f+2     :     0.001258
      f-2     :     0.000689
      f+3     :     0.001044
      f-3     :     0.001006
  7 H s       :     0.654518  s :     0.654518
      pz      :     0.091781  p :     0.187859
      px      :     0.066501
      py      :     0.029577
  8 C s       :     2.865614  s :     2.865614
      pz      :     1.058333  p :     3.024536
      px      :     1.086646
      py      :     0.879557
      dz2     :     0.093274  d :     0.443589
      dxz     :     0.040081
      dyz     :     0.088821
      dx2y2   :     0.086834
      dxy     :     0.134579
      f0      :     0.005240  f :     0.061109
      f+1     :     0.003215
      f-1     :     0.012264
      f+2     :     0.009754
      f-2     :     0.009085
      f+3     :     0.010877
      f-3     :     0.010675
  9 H s       :     0.827781  s :     0.827781
      pz      :     0.036490  p :     0.063920
      px      :     0.017350
      py      :     0.010080
 10 H s       :     0.842644  s :     0.842644
      pz      :     0.020000  p :     0.064188
      px      :     0.023142
      py      :     0.021046
 11 H s       :     0.848595  s :     0.848595
      pz      :     0.013711  p :     0.064143
      px      :     0.035491
      py      :     0.014941
 12 O s       :     3.393740  s :     3.393740
      pz      :     1.372378  p :     4.617680
      px      :     1.669918
      py      :     1.575385
      dz2     :     0.018381  d :     0.096047
      dxz     :     0.016984
      dyz     :     0.030283
      dx2y2   :     0.014186
      dxy     :     0.016213
      f0      :     0.000735  f :     0.007104
      f+1     :     0.001030
      f-1     :     0.001425
      f+2     :     0.001389
      f-2     :     0.001101
      f+3     :     0.000699
      f-3     :     0.000726
 13 H s       :     0.660878  s :     0.660878
      pz      :     0.056567  p :     0.150271
      px      :     0.038506
      py      :     0.055198
 14 C s       :     2.867334  s :     2.867334
      pz      :     0.972560  p :     3.022466
      px      :     1.009627
      py      :     1.040279
      dz2     :     0.080216  d :     0.432140
      dxz     :     0.073759
      dyz     :     0.113950
      dx2y2   :     0.084749
      dxy     :     0.079466
      f0      :     0.009320  f :     0.060253
      f+1     :     0.007438
      f-1     :     0.008962
      f+2     :     0.011291
      f-2     :     0.010633
      f+3     :     0.007346
      f-3     :     0.005262
 15 H s       :     0.830450  s :     0.830450
      pz      :     0.027866  p :     0.063857
      px      :     0.013308
      py      :     0.022683
 16 H s       :     0.839844  s :     0.839844
      pz      :     0.015546  p :     0.065536
      px      :     0.017827
      py      :     0.032162
 17 H s       :     0.837048  s :     0.837048
      pz      :     0.015644  p :     0.064785
      px      :     0.034371
      py      :     0.014770


                      *****************************
                      * MAYER POPULATION ANALYSIS *
                      *****************************

  NA   - Mulliken gross atomic population
  ZA   - Total nuclear charge
  QA   - Mulliken gross atomic charge
  VA   - Mayer's total valence
  BVA  - Mayer's bonded valence
  FA   - Mayer's free valence

  ATOM       NA         ZA         QA         VA         BVA        FA
  0 O      8.5184     8.0000    -0.5184     2.1624     1.7600     0.4024
  1 H      0.6574     1.0000     0.3426     0.8940     0.8421     0.0520
  2 C      6.1876     6.0000    -0.1876     3.9684     3.6923     0.2761
  3 H      0.8544     1.0000     0.1456     0.9676     0.9220     0.0456
  4 H      0.8688     1.0000     0.1312     0.9675     0.9202     0.0473
  5 H      0.8726     1.0000     0.1274     0.9613     0.9135     0.0478
  6 O      8.5261     8.0000    -0.5261     2.1101     1.7074     0.4027
  7 H      0.6450     1.0000     0.3550     0.9163     0.8679     0.0483
  8 C      6.1813     6.0000    -0.1813     4.0613     3.7804     0.2809
  9 H      0.8708     1.0000     0.1292     0.9660     0.9195     0.0466
 10 H      0.8949     1.0000     0.1051     0.9618     0.9127     0.0491
 11 H      0.9145     1.0000     0.0855     0.9641     0.9139     0.0502
 12 O      8.5120     8.0000    -0.5120     2.1411     1.7419     0.3992
 13 H      0.6743     1.0000     0.3257     0.9088     0.8565     0.0523
 14 C      6.1671     6.0000    -0.1671     4.0153     3.7385     0.2768
 15 H      0.8797     1.0000     0.1203     0.9588     0.9120     0.0468
 16 H      0.8898     1.0000     0.1102     0.9736     0.9245     0.0491
 17 H      0.8852     1.0000     0.1148     0.9689     0.9206     0.0483

  Mayer bond orders larger than 0.100000
B(  0-O ,  1-H ) :   0.8260 B(  0-O ,  2-C ) :   0.8703 B(  2-C ,  3-H ) :   0.9394 
B(  2-C ,  4-H ) :   0.9353 B(  2-C ,  5-H ) :   0.9346 B(  6-O ,  7-H ) :   0.7882 
B(  6-O ,  8-C ) :   0.9421 B(  8-C ,  9-H ) :   0.9420 B(  8-C , 10-H ) :   0.9411 
B(  8-C , 11-H ) :   0.9359 B( 12-O , 13-H ) :   0.8405 B( 12-O , 14-C ) :   0.9206 
B( 14-C , 15-H ) :   0.9355 B( 14-C , 16-H ) :   0.9390 B( 14-C , 17-H ) :   0.9414 



----------------------------------
MP2 DERIVATIVE INTEGRAL GENERATION
----------------------------------


Input Wavefunction Amplitudes       ... 12meoh.boyd.etal.mol6,7,8-orca.engrad-mp2.def2tzvp.frozencore.mp2tsaa.tmp
Input Correlated Electron Density   ... 12meoh.boyd.etal.mol6,7,8-orca.engrad-mp2.def2tzvp.frozencore.pmp2re
Input Energy Weighted Density       ... 12meoh.boyd.etal.mol6,7,8-orca.engrad-mp2.def2tzvp.frozencore.wmp2.tmp
Input SCF Electron Density          ... 12meoh.boyd.etal.mol6,7,8-orca.engrad-mp2.def2tzvp.frozencore.scfp

One-Electron Terms    ...
                        ... One-Electron Terms done
Prescreening matrices              ... done

Batch handling in the gradient evaluation:
Memory available                      ... 8000.0 MB
Memory per occupied orbital in Q2     ...   10.7 MB
Memory per occupied orbital in Q3     ...    0.1 MB
Total memory requirement per |i>      ...   10.8 MB
Max. Number of orbitals possible      ...    743
Number of orbitals treated per batch  ...     21
Number of batches to be done          ...      1
Batch   0: i=    6 ...    26

---------------------------------------
MP2 TOTAL ENERGY:     -346.532354098 Eh
---------------------------------------

The final MP2 gradient
  0:   0.02448163   0.00783552  -0.01543682
  1:  -0.02192460  -0.00887861   0.01779124
  2:   0.00206876   0.00711436   0.00729768
  3:   0.00308416  -0.00051981  -0.00384838
  4:  -0.00311773  -0.00037577  -0.00269341
  5:  -0.00044885  -0.00433548   0.00062485
  6:   0.00623669   0.00344650   0.00614239
  7:  -0.00989640  -0.00011621  -0.01439859
  8:  -0.00262672  -0.00500700   0.00486578
  9:   0.00216807   0.00007895   0.00305305
 10:   0.00215726  -0.00016322  -0.00207010
 11:  -0.00186810  -0.00016992  -0.00122671
 12:   0.00434939   0.01408453  -0.01494424
 13:  -0.00600346  -0.01294773   0.01954372
 14:  -0.00179658   0.00240474  -0.00238048
 15:   0.00170582   0.00091387  -0.00347784
 16:  -0.00138517  -0.00321696  -0.00116827
 17:   0.00281582  -0.00014777   0.00232614

-----------------------------------
NORM OF THE MP2 GRADIENT:  0.059208
-----------------------------------

-------------------------   --------------------
FINAL SINGLE POINT ENERGY      -346.532354097533
-------------------------   --------------------


                            ***************************************
                            *     ORCA property calculations      *
                            ***************************************

                                    ---------------------
                                    Active property flags
                                    ---------------------
   (+) Dipole Moment


------------------------------------------------------------------------------
                       ORCA ELECTRIC PROPERTIES CALCULATION
------------------------------------------------------------------------------

Dipole Moment Calculation                       ... on
Quadrupole Moment Calculation                   ... off
Polarizability Calculation                      ... off
GBWName                                         ... 12meoh.boyd.etal.mol6,7,8-orca.engrad-mp2.def2tzvp.frozencore.gbw
Electron density file                           ... 12meoh.boyd.etal.mol6,7,8-orca.engrad-mp2.def2tzvp.frozencore.scfp
The origin for moment calculation is the CENTER OF MASS  = ( 6.886646, -1.516826 -1.069275)

-------------
DIPOLE MOMENT
-------------
                                X             Y             Z
Electronic contribution:     -1.18556       3.74814       1.47680
Nuclear contribution   :      0.48507      -5.69227      -2.12021
                        -----------------------------------------
Total Dipole Moment    :     -0.70049      -1.94413      -0.64341
                        -----------------------------------------
Magnitude (a.u.)       :      2.16433
Magnitude (Debye)      :      5.50128



--------------------
Rotational spectrum 
--------------------
 
Rotational constants in cm-1:     0.078373     0.039065     0.028121 
Rotational constants in MHz :  2349.560215  1171.151939   843.046038 

 Dipole components along the rotational axes: 
x,y,z [a.u.] :    -2.000362     0.806971     0.177920 
x,y,z [Debye]:    -5.084516     2.051158     0.452238 

 

                         *** MP2 UNRELAXED DENSITY ***

------------------------------------------------------------------------------
                       ORCA ELECTRIC PROPERTIES CALCULATION
------------------------------------------------------------------------------

Dipole Moment Calculation                       ... on
Quadrupole Moment Calculation                   ... off
Polarizability Calculation                      ... off
GBWName                                         ... 12meoh.boyd.etal.mol6,7,8-orca.engrad-mp2.def2tzvp.frozencore.gbw
Electron density file                           ... 12meoh.boyd.etal.mol6,7,8-orca.engrad-mp2.def2tzvp.frozencore.pmp2ur
The origin for moment calculation is the CENTER OF MASS  = ( 6.886646, -1.516826 -1.069275)

-------------
DIPOLE MOMENT
-------------
                                X             Y             Z
Electronic contribution:     -1.18233       3.78913       1.48401
Nuclear contribution   :      0.48507      -5.69227      -2.12021
                        -----------------------------------------
Total Dipole Moment    :     -0.69726      -1.90314      -0.63620
                        -----------------------------------------
Magnitude (a.u.)       :      2.12435
Magnitude (Debye)      :      5.39967



--------------------
Rotational spectrum 
--------------------
 
Rotational constants in cm-1:     0.078373     0.039065     0.028121 
Rotational constants in MHz :  2349.560215  1171.151939   843.046038 

 Dipole components along the rotational axes: 
x,y,z [a.u.] :    -1.959280     0.800649     0.181787 
x,y,z [Debye]:    -4.980094     2.035088     0.462067 

 

                           *** MP2 RELAXED DENSITY ***

------------------------------------------------------------------------------
                       ORCA ELECTRIC PROPERTIES CALCULATION
------------------------------------------------------------------------------

Dipole Moment Calculation                       ... on
Quadrupole Moment Calculation                   ... off
Polarizability Calculation                      ... off
GBWName                                         ... 12meoh.boyd.etal.mol6,7,8-orca.engrad-mp2.def2tzvp.frozencore.gbw
Electron density file                           ... 12meoh.boyd.etal.mol6,7,8-orca.engrad-mp2.def2tzvp.frozencore.pmp2re
The origin for moment calculation is the CENTER OF MASS  = ( 6.886646, -1.516826 -1.069275)

-------------
DIPOLE MOMENT
-------------
                                X             Y             Z
Electronic contribution:     -1.18770       3.84135       1.49181
Nuclear contribution   :      0.48507      -5.69227      -2.12021
                        -----------------------------------------
Total Dipole Moment    :     -0.70263      -1.85091      -0.62840
                        -----------------------------------------
Magnitude (a.u.)       :      2.07713
Magnitude (Debye)      :      5.27964



--------------------
Rotational spectrum 
--------------------
 
Rotational constants in cm-1:     0.078373     0.039065     0.028121 
Rotational constants in MHz :  2349.560215  1171.151939   843.046038 

 Dipole components along the rotational axes: 
x,y,z [a.u.] :    -1.907851     0.797927     0.194627 
x,y,z [Debye]:    -4.849372     2.028169     0.494701 

 

Timings for individual modules:

Sum of individual times         ...       82.601 sec (=   1.377 min)
GTO integral calculation        ...        1.015 sec (=   0.017 min)   1.2 %
SCF iterations                  ...       17.729 sec (=   0.295 min)  21.5 %
MP2 module                      ...       63.856 sec (=   1.064 min)  77.3 %
                             ****ORCA TERMINATED NORMALLY****
TOTAL RUN TIME: 0 days 0 hours 1 minutes 23 seconds 550 msec
