16
Energy:   -486.94959960
O   -0.05591616   0.64265223  -2.43744873
H    0.72258014   0.64412348  -1.88051678
H   -0.79023493   0.64984197  -1.82348123
O   -0.22659256  -1.77870159  -1.15262409
H   -0.27851013  -1.10559264  -1.83119668
H   -0.62429693  -1.37367303  -0.38190043
O    0.20443269   0.49266343   3.16573271
H    0.38990570   1.25840504   2.62215991
H   -0.32489670  -0.07602762   2.60659700
O    1.75274203  -0.14780993   0.03013142
H    1.04609490   0.45453688   0.26263949
H    1.30574380  -0.95376007  -0.22845863
C   -1.36753349   0.63362022   0.56389702
O   -0.23590572   1.40430038   0.51461172
O   -1.05172808  -0.61098670   1.04172478
O   -1.89695049   0.51931931  -0.69484567
