16
Energy:   -484.49172422
O   -2.00808011   0.11882853  -0.39276804
H   -1.15344564  -0.28935454  -0.25413776
H   -1.98520151   0.91154936   0.14323765
O   -0.23125939   1.48998628  -1.96214986
H    0.46616872   1.33222694  -1.32580258
H   -0.98933488   1.02550523  -1.60745175
O    2.26040181  -1.89002645  -1.09822854
H    2.75895128  -1.09506766  -1.28722802
H    1.52044837  -1.58949810  -0.57060797
O   -1.12299182  -0.29242215   2.76234043
H   -1.05845883  -1.11948386   2.28480899
H   -0.62777329   0.33085765   2.23082116
C    0.97989778   0.30525598   0.67675676
O    1.76032877   0.79994587  -0.33476080
O    0.31248771  -0.80714369   0.23604194
O    0.07446956   1.25875419   1.06253017
