16
Energy:   -501.88188009
O   -0.98077572  -1.24609582   0.57615203
H   -0.97138648  -0.54761014  -0.07826485
H   -0.23839292  -1.04960757   1.14754681
O    1.14778557  -1.82869229  -1.03499453
H    1.26313357  -0.90256112  -1.24761566
H    0.29878058  -1.86994155  -0.59485719
O    1.57172937  -0.59718774   1.41577905
H    1.19538974   0.22413376   1.09950176
H    1.69257831  -1.12536698   0.62669472
O   -2.36954955   2.16134078   0.01155737
H   -1.76279082   2.39228403   0.71493558
H   -1.85364025   1.61383248  -0.58030755
C    0.35246556   1.32505755  -0.87254134
O    1.52106983   0.73827124  -1.28120289
O    0.35865837   1.45316055   0.49151513
O   -0.70757293   0.54477328  -1.25366477
