24
Energy:   -112.71841063
O    0.33929599  -0.80925482  -1.72360769
H   -0.11766404  -1.33303490  -1.06552425
H    0.41095119   0.06059352  -1.33059212
O   -0.71498072  -1.90487151   0.60660532
H   -1.25043985  -1.39545655   1.21489124
H    0.16413280  -1.88317582   0.98465367
C   -0.39155466   2.50082861   2.06291714
H    0.38418303   3.03610506   2.56948435
H   -0.68285685   1.65477622   2.64963468
H   -1.23484168   3.14402583   1.92127170
C    0.12492420   2.02238962   0.69326546
N    0.50946619   1.66617004  -0.32650247
C   -2.92584632   0.30701492  -1.52134236
H   -3.87221119   0.68644831  -1.84587900
H   -2.81312663  -0.70327073  -1.85528286
H   -2.14109734   0.90783409  -1.93132341
C   -2.85547223   0.35024021   0.01644145
N   -2.80307551   0.38242340   1.16139140
C    3.70203142  -0.92367688  -0.63949105
H    4.47192026  -1.66670457  -0.64850282
H    4.14261124   0.04510867  -0.52884257
H    3.15627170  -0.96439448  -1.55894061
C    2.74534574  -1.18999698   0.53755021
N    2.03304977  -1.38828440   1.41391092
