24
Energy:   -113.27439174
O   -0.33925235  -0.63888524  -1.80979401
H   -0.29085908   0.26706905  -1.50461085
H   -0.15282305  -1.16447460  -1.03182757
O    0.22347791  -1.90391096   0.63396787
H    0.96286025  -2.05055997   1.22391674
H   -0.52442991  -1.76807861   1.21570261
C    0.41468670   1.69654368   2.20220915
H    1.41965728   2.02340931   2.36981933
H    0.31144172   0.68135207   2.52411839
H   -0.25905932   2.31655166   2.75588370
C    0.08656593   1.79487072   0.70078697
N   -0.15773489   1.86807968  -0.41709009
C   -3.37113821   0.23032100  -0.74150055
H   -2.85419090   1.11480355  -1.05029868
H   -4.40165322   0.46122807  -0.56939639
H   -3.29526973  -0.51292486  -1.50748270
C   -2.74117742  -0.30528876   0.55768057
N   -2.27214298  -0.70407457   1.52497997
C    2.89194690  -0.14872653  -1.55772397
H    2.34242071   0.69756897  -1.91368054
H    2.43964544  -1.04700207  -1.92299581
H    3.90185376  -0.09058315  -1.90644530
C    2.88031886  -0.15759714  -0.01779342
N    2.87166125  -0.16420171   1.12875487
