24
Energy:   -117.85343561
O    2.42679070  -0.87935902  -1.22112211
H    1.60769560  -1.35962638  -1.10005053
H    2.96481842  -1.45552792  -1.76406540
O    0.02441180  -2.13854253  -0.88725506
H   -0.59202818  -1.57881757  -1.35942194
H   -0.30510058  -2.15384953   0.01130998
C   -0.09392785   2.27534308  -2.10279434
H    0.93957578   1.99870351  -2.08727064
H   -0.28890090   2.97077588  -1.31332755
H   -0.32769222   2.72877362  -3.04335484
C   -0.96434064   1.01999061  -1.90767452
N   -1.61240253   0.08532363  -1.76239895
C   -2.96369320   0.48601130   1.54570707
H   -3.75777525   0.34078748   2.24802033
H   -3.37021936   0.56578889   0.55916204
H   -2.43399784   1.38387422   1.78687940
C   -1.99807850  -0.71204860   1.60768059
N   -1.27913446  -1.60405866   1.65382269
C    1.93218827  -0.20859086   2.03350136
H    2.89562977  -0.10949908   1.57868110
H    1.49761689  -1.14384169   1.74827740
H    2.03490996  -0.17289574   3.09796047
C    1.02316657   0.94348084   1.56658559
N    0.34635859   1.80125059   1.21894558
