24
Energy:   -112.25602356
O   -1.79912777   0.44762679  -2.08840673
H   -2.15921025  -0.10425500  -1.39414529
H   -1.24839191   1.08188741  -1.62945648
O    0.08443142  -1.23899612  -3.12006714
H   -0.59401860  -0.62886110  -2.83080483
H   -0.17510310  -1.48286393  -4.00855021
C   -1.66448597   0.83634674   3.04878803
H   -2.05877821   0.85018621   2.05418143
H   -1.78969849   1.80051920   3.49554567
H   -2.18589961   0.10397049   3.62900517
C   -0.16633891   0.48281437   3.00220194
N    0.94909967   0.21959344   2.96751648
C    0.75320104  -2.11092400   0.16543604
H    0.83246511  -3.08707814   0.59641223
H    1.36126629  -1.42622637   0.71892036
H    1.08566182  -2.14179153  -0.85113472
C   -0.71453701  -1.64701752   0.21165088
N   -1.80733469  -1.30161805   0.24605994
C    2.69058724   1.65751962   0.29610492
H    2.93534267   2.51869864   0.88207902
H    3.30596716   1.63487471  -0.57893442
H    2.85969145   0.77305264   0.87405043
C    1.20924902   1.72362874  -0.11966747
N    0.10632539   1.77284998  -0.42922891
