24
Energy:   -117.44241250
O    1.62722349   1.36003339  -0.94766958
H    1.67545156   1.01528064  -0.05601301
H    0.91140056   1.99495311  -0.92109284
O    1.74900920  -1.08341119  -2.20031084
H    2.45353419  -1.02260733  -2.84543042
H    1.69744671  -0.20740253  -1.81797333
C   -1.71765419   2.15612606   2.30648917
H   -2.10258619   3.04778326   2.75557152
H   -0.91274963   1.77642544   2.90050532
H   -2.49434115   1.42251870   2.24752556
C   -1.20425120   2.47513803   0.89006807
N   -0.82199933   2.71265694  -0.16452182
C   -1.60853542  -0.43608903  -1.90844249
H   -2.53267165  -0.31962138  -2.43504260
H   -1.05861826  -1.25184038  -2.32920364
H   -1.03407754   0.46265124  -1.99307792
C   -1.89673011  -0.72315792  -0.42313603
N   -2.11130415  -0.93689375   0.68274215
C    0.92818581  -2.66700444   1.54691701
H    1.46764192  -3.11353621   2.35592670
H    1.28310539  -3.06457254   0.61908578
H   -0.11465212  -2.88245919   1.65164229
C    1.14186087  -1.14203514   1.56720513
N    1.30095165  -0.00662618   1.58231056
