24
Energy:   -112.82899382
O   -0.98382754   0.94126991  -1.60460642
H   -0.58227592   1.37378563  -0.85100287
H   -0.66044221   0.04121498  -1.56517422
O   -0.00780248  -1.63852684  -1.00046463
H    0.62886811  -2.35117062  -0.94549878
H   -0.65191951  -1.83926164  -0.32145753
C    1.18549543  -0.38702081   2.44543999
H    2.09741790  -0.09763353   2.92455647
H    1.35980329  -1.25126365   1.83913960
H    0.44924944  -0.61468530   3.18774034
C    0.68177871   0.76801023   1.56013056
N    0.30673872   1.62798333   0.90097746
C   -3.36473369   0.74228373   0.81223428
H   -4.34553130   0.59670413   1.21440689
H   -3.43682440   0.96529961  -0.23178006
H   -2.88870890   1.55579847   1.31868593
C   -2.53447994  -0.54002199   1.00709512
N   -1.91631829  -1.49475689   1.15217787
C    2.43775290   0.79334198  -1.90003055
H    3.29172926   1.22107459  -2.38238869
H    1.92340676   1.55144920  -1.34720094
H    1.78058177   0.38172301  -2.63731951
C    2.89477527  -0.32095927  -0.94031014
N    3.23504919  -1.15060720  -0.22575466
