
                                 *****************
                                 * O   R   C   A *
                                 *****************

           --- An Ab Initio, DFT and Semiempirical electronic structure package ---

                  #######################################################
                  #                        -***-                        #
                  #          Department of theory and spectroscopy      #
                  #               Directorship: Frank Neese             #
                  #        Max Planck Institute fuer Kohlenforschung    #
                  #                Kaiser Wilhelm Platz 1               #
                  #                 D-45470 Muelheim/Ruhr               #
                  #                      Germany                        #
                  #                                                     #
                  #                  All rights reserved                #
                  #                        -***-                        #
                  #######################################################


                         Program Version 4.2.0 -  RELEASE  -


 With contributions from (in alphabetic order):
   Daniel Aravena         : Magnetic Suceptibility
   Michael Atanasov       : Ab Initio Ligand Field Theory (pilot matlab implementation)
   Alexander A. Auer      : GIAO ZORA, VPT2
   Ute Becker             : Parallelization
   Giovanni Bistoni       : ED, misc. LED, open-shell LED, HFLED
   Martin Brehm           : Molecular dynamics
   Dmytro Bykov           : SCF Hessian
   Vijay G. Chilkuri      : MRCI spin determinant printing, contributions to CSF-ICE
   Dipayan Datta          : RHF DLPNO-CCSD density
   Achintya Kumar Dutta   : EOM-CC, STEOM-CC
   Dmitry Ganyushin       : Spin-Orbit,Spin-Spin,Magnetic field MRCI
   Miquel Garcia          : C-PCM Hessian, Gaussian charge scheme
   Yang Guo               : DLPNO-NEVPT2, CIM, IAO-localization
   Andreas Hansen         : Spin unrestricted coupled pair/coupled cluster methods
   Benjamin Helmich-Paris : CASSCF linear response (MC-RPA)
   Lee Huntington         : MR-EOM, pCC
   Robert Izsak           : Overlap fitted RIJCOSX, COSX-SCS-MP3, EOM
   Christian Kollmar      : KDIIS, OOCD, Brueckner-CCSD(T), CCSD density
   Simone Kossmann        : Meta GGA functionals, TD-DFT gradient, OOMP2, MP2 Hessian
   Martin Krupicka        : AUTO-CI
   Lucas Lang             : DCDCAS
   Dagmar Lenk            : GEPOL surface, SMD
   Dimitrios Liakos       : Extrapolation schemes; Compound Job, initial MDCI parallelization
   Dimitrios Manganas     : Further ROCIS development; embedding schemes
   Dimitrios Pantazis     : SARC Basis sets
   Taras Petrenko         : DFT Hessian,TD-DFT gradient, ASA, ECA, R-Raman, ABS, FL, XAS/XES, NRVS
   Peter Pinski           : DLPNO-MP2, DLPNO-MP2 Gradient
   Christoph Reimann      : Effective Core Potentials
   Marius Retegan         : Local ZFS, SOC
   Christoph Riplinger    : Optimizer, TS searches, QM/MM, DLPNO-CCSD(T), (RO)-DLPNO pert. Triples
   Tobias Risthaus        : Range-separated hybrids, TD-DFT gradient, RPA, STAB
   Michael Roemelt        : Original ROCIS implementation
   Masaaki Saitow         : Open-shell DLPNO-CCSD energy and density
   Barbara Sandhoefer     : DKH picture change effects
   Avijit Sen             : IP-ROCIS
   Kantharuban Sivalingam : CASSCF convergence, NEVPT2, FIC-MRCI
   Bernardo de Souza      : ESD, SOC TD-DFT
   Georgi Stoychev        : AutoAux, RI-MP2 NMR
   Willem Van den Heuvel  : Paramagnetic NMR
   Boris Wezisla          : Elementary symmetry handling
   Frank Wennmohs         : Technical directorship


 We gratefully acknowledge several colleagues who have allowed us to
 interface, adapt or use parts of their codes:
   Stefan Grimme, W. Hujo, H. Kruse,             : VdW corrections, initial TS optimization,
                  C. Bannwarth                     DFT functionals, gCP, sTDA/sTD-DF
   Ed Valeev, F. Pavosevic, A. Kumar             : LibInt (2-el integral package), F12 methods
   Garnet Chan, S. Sharma, J. Yang, R. Olivares  : DMRG
   Ulf Ekstrom                                   : XCFun DFT Library
   Mihaly Kallay                                 : mrcc  (arbitrary order and MRCC methods)
   Andreas Klamt, Michael Diedenhofen            : otool_cosmo (COSMO solvation model)
   Jiri Pittner, Ondrej Demel                    : Mk-CCSD
   Frank Weinhold                                : gennbo (NPA and NBO analysis)
   Christopher J. Cramer and Donald G. Truhlar   : smd solvation model
   Lars Goerigk                                  : TD-DFT with DH, B97 family of functionals
   V. Asgeirsson, H. Jonsson                     : NEB implementation
   FAccTs GmbH                                   : IRC, NEB, NEB-TS, Multilevel, MM, QM/MM, CI optimization
   S Lehtola, MJT Oliveira, MAL Marques          : LibXC Library


 Your calculation uses the libint2 library for the computation of 2-el integrals
 For citations please refer to: http://libint.valeyev.net

 Your ORCA version has been built with support for libXC version: 4.2.3
 For citations please refer to: https://tddft.org/programs/libxc/

 This ORCA versions uses:
   CBLAS   interface :  Fast vector & matrix operations
   LAPACKE interface :  Fast linear algebra routines
   SCALAPACK package :  Parallel linear algebra routines


----- Orbital basis set information -----
Your calculation utilizes the basis: def2-TZVP
   F. Weigend and R. Ahlrichs, Phys. Chem. Chem. Phys. 7, 3297 (2005).

================================================================================
                                        WARNINGS
                       Please study these warnings very carefully!
================================================================================


WARNING: The frozen-core approximation for MP2-gradient calculations is turned on by default.

INFO   : the flag for use of LIBINT has been found!

================================================================================
                                       INPUT FILE
================================================================================
NAME = 12h2o.su.etal.mol0,1,2,3,5,8,9,10,11-orca.engrad-mp2.def2tzvp.frozencore.inp
|  1> # 12h2o.su.etal.mol0,1,2,3,5,8,9,10,11
|  2> ! MP2 def2-TZVP EnGrad TightSCF
|  3> 
|  4> %pal
|  5>     nprocs 6
|  6> end
|  7> 
|  8> %maxcore 8000
|  9> 
| 10> %scf
| 11>     ConvForced true
| 12> end
| 13> 
| 14> *xyz 0 1
| 15> O   1.794470000   0.923410000   2.768350000
| 16> H   2.338250000   1.359750000   3.430940000
| 17> H   0.879480000   1.303000000   2.865760000
| 18> O  -1.794470000  -0.923410000   2.768350000
| 19> H  -2.338250000  -1.359750000   3.430940000
| 20> H  -0.879480000  -1.303000000   2.865760000
| 21> O   0.923410000  -1.794470000  -2.768350000
| 22> H   1.359750000  -2.338250000  -3.430940000
| 23> H   1.303000000  -0.879480000  -2.865760000
| 24> O  -1.752130000  -0.741530000  -2.896280000
| 25> H  -2.036450000  -0.920500000  -1.984040000
| 26> H  -0.921210000  -1.242140000  -2.984230000
| 27> O   0.885520000  -1.737840000   0.052730000
| 28> H   1.284090000  -0.839590000   0.017130000
| 29> H   1.032320000  -2.090180000  -0.841890000
| 30> O   1.752130000   0.741530000  -2.896280000
| 31> H   2.036450000   0.920500000  -1.984040000
| 32> H   0.921210000   1.242140000  -2.984230000
| 33> O   0.741530000  -1.752130000   2.896280000
| 34> H   0.920500000  -2.036450000   1.984040000
| 35> H   1.242140000  -0.921210000   2.984230000
| 36> O  -0.923410000   1.794470000  -2.768350000
| 37> H  -1.359750000   2.338250000  -3.430940000
| 38> H  -1.303000000   0.879480000  -2.865760000
| 39> O  -0.741530000   1.752130000   2.896280000
| 40> H  -0.920500000   2.036450000   1.984040000
| 41> H  -1.242140000   0.921210000   2.984230000
| 42> *
| 43> 
| 44>                          ****END OF INPUT****
================================================================================

                     *******************************
                     * Energy+Gradient Calculation *
                     *******************************

---------------------------------
CARTESIAN COORDINATES (ANGSTROEM)
---------------------------------
  O      1.794470    0.923410    2.768350
  H      2.338250    1.359750    3.430940
  H      0.879480    1.303000    2.865760
  O     -1.794470   -0.923410    2.768350
  H     -2.338250   -1.359750    3.430940
  H     -0.879480   -1.303000    2.865760
  O      0.923410   -1.794470   -2.768350
  H      1.359750   -2.338250   -3.430940
  H      1.303000   -0.879480   -2.865760
  O     -1.752130   -0.741530   -2.896280
  H     -2.036450   -0.920500   -1.984040
  H     -0.921210   -1.242140   -2.984230
  O      0.885520   -1.737840    0.052730
  H      1.284090   -0.839590    0.017130
  H      1.032320   -2.090180   -0.841890
  O      1.752130    0.741530   -2.896280
  H      2.036450    0.920500   -1.984040
  H      0.921210    1.242140   -2.984230
  O      0.741530   -1.752130    2.896280
  H      0.920500   -2.036450    1.984040
  H      1.242140   -0.921210    2.984230
  O     -0.923410    1.794470   -2.768350
  H     -1.359750    2.338250   -3.430940
  H     -1.303000    0.879480   -2.865760
  O     -0.741530    1.752130    2.896280
  H     -0.920500    2.036450    1.984040
  H     -1.242140    0.921210    2.984230

----------------------------
CARTESIAN COORDINATES (A.U.)
----------------------------
  NO LB      ZA    FRAG     MASS         X           Y           Z
   0 O     8.0000    0    15.999    3.391057    1.744992    5.231423
   1 H     1.0000    0     1.008    4.418652    2.569555    6.483537
   2 H     1.0000    0     1.008    1.661976    2.462313    5.415502
   3 O     8.0000    0    15.999   -3.391057   -1.744992    5.231423
   4 H     1.0000    0     1.008   -4.418652   -2.569555    6.483537
   5 H     1.0000    0     1.008   -1.661976   -2.462313    5.415502
   6 O     8.0000    0    15.999    1.744992   -3.391057   -5.231423
   7 H     1.0000    0     1.008    2.569555   -4.418652   -6.483537
   8 H     1.0000    0     1.008    2.462313   -1.661976   -5.415502
   9 O     8.0000    0    15.999   -3.311046   -1.401289   -5.473176
  10 H     1.0000    0     1.008   -3.848333   -1.739493   -3.749292
  11 H     1.0000    0     1.008   -1.740835   -2.347304   -5.639377
  12 O     8.0000    0    15.999    1.673390   -3.284042    0.099645
  13 H     1.0000    0     1.008    2.426578   -1.586595    0.032371
  14 H     1.0000    0     1.008    1.950802   -3.949868   -1.590942
  15 O     8.0000    0    15.999    3.311046    1.401289   -5.473176
  16 H     1.0000    0     1.008    3.848333    1.739493   -3.749292
  17 H     1.0000    0     1.008    1.740835    2.347304   -5.639377
  18 O     8.0000    0    15.999    1.401289   -3.311046    5.473176
  19 H     1.0000    0     1.008    1.739493   -3.848333    3.749292
  20 H     1.0000    0     1.008    2.347304   -1.740835    5.639377
  21 O     8.0000    0    15.999   -1.744992    3.391057   -5.231423
  22 H     1.0000    0     1.008   -2.569555    4.418652   -6.483537
  23 H     1.0000    0     1.008   -2.462313    1.661976   -5.415502
  24 O     8.0000    0    15.999   -1.401289    3.311046    5.473176
  25 H     1.0000    0     1.008   -1.739493    3.848333    3.749292
  26 H     1.0000    0     1.008   -2.347304    1.740835    5.639377

--------------------------------
INTERNAL COORDINATES (ANGSTROEM)
--------------------------------
 O      0   0   0     0.000000000000     0.00000000     0.00000000
 H      1   0   0     0.961828878803     0.00000000     0.00000000
 H      1   2   0     0.995381322057   106.21731035     0.00000000
 O      3   1   2     3.480861789658   117.35405144   223.81249033
 H      4   3   1     0.961828878803   134.84484566    98.22461471
 H      4   3   1     0.995381322057    62.29205096    12.66575463
 O      6   4   3     5.935920367146   102.58474291   273.48279218
 H      7   6   4     0.961828878803   146.97742434   224.01286022
 H      7   6   4     0.995381322057    97.62005672    87.72090689
 O      7   6   4     2.878117964938    74.30903121   359.04191204
 H     10   7   6     0.972136791249    99.37069922   345.64431536
 H     10   7   6     0.974050112161    12.30570018   233.12878636
 O      7   6   4     2.821902722526    17.32744736   169.52589616
 H     13   7   6     0.983350632989    88.66470709   258.45499027
 H     13   7   6     0.972645187106    21.75017499   124.29821266
 O      9   7   6     1.682356278379   171.61043709   321.17145860
 H     16   9   7     0.972136791249   103.79460456    70.64587838
 H     16   9   7     0.974050112161   105.61118924   321.69395179
 O      6   4   3     1.682356278379   171.61043709   328.33166207
 H     19   6   4     0.972136791249   103.79460456   289.35412162
 H     19   6   4     0.974050112161   105.61118924    38.30604821
 O     18  16   9     1.937600461318   161.54375213    39.05245435
 H     22  18  16     0.961828878803   121.08403650   202.75419110
 H     22  18  16     0.995381322057    95.17003195   315.21089530
 O      3   1   2     1.682356278379   171.61043709   195.73896161
 H     25   3   1     0.972136791249   103.79460456   289.35412162
 H     25   3   1     0.974050112161   105.61118924    38.30604821

---------------------------
INTERNAL COORDINATES (A.U.)
---------------------------
 O      0   0   0     0.000000000000     0.00000000     0.00000000
 H      1   0   0     1.817593168635     0.00000000     0.00000000
 H      1   2   0     1.880998097508   106.21731035     0.00000000
 O      3   1   2     6.577875492484   117.35405144   223.81249033
 H      4   3   1     1.817593168635   134.84484566    98.22461471
 H      4   3   1     1.880998097508    62.29205096    12.66575463
 O      6   4   3    11.217263846671   102.58474291   273.48279218
 H      7   6   4     1.817593168635   146.97742434   224.01286022
 H      7   6   4     1.880998097508    97.62005672    87.72090689
 O      7   6   4     5.438854734852    74.30903121   359.04191204
 H     10   7   6     1.837072300170    99.37069922   345.64431536
 H     10   7   6     1.840687952699    12.30570018   233.12878636
 O      7   6   4     5.332623322141    17.32744736   169.52589616
 H     13   7   6     1.858263389967    88.66470709   258.45499027
 H     13   7   6     1.838033029106    21.75017499   124.29821266
 O      9   7   6     3.179192625819   171.61043709   321.17145860
 H     16   9   7     1.837072300170   103.79460456    70.64587838
 H     16   9   7     1.840687952699   105.61118924   321.69395179
 O      6   4   3     3.179192625819   171.61043709   328.33166207
 H     19   6   4     1.837072300170   103.79460456   289.35412162
 H     19   6   4     1.840687952699   105.61118924    38.30604821
 O     18  16   9     3.661534228851   161.54375213    39.05245435
 H     22  18  16     1.817593168635   121.08403650   202.75419110
 H     22  18  16     1.880998097508    95.17003195   315.21089530
 O      3   1   2     3.179192625819   171.61043709   195.73896161
 H     25   3   1     1.837072300170   103.79460456   289.35412162
 H     25   3   1     1.840687952699   105.61118924    38.30604821

---------------------
BASIS SET INFORMATION
---------------------
There are 2 groups of distinct atoms

 Group   1 Type O   : 11s6p2d1f contracted to 5s3p2d1f pattern {62111/411/11/1}
 Group   2 Type H   : 5s1p contracted to 3s1p pattern {311/1}

Atom   0O    basis set group =>   1
Atom   1H    basis set group =>   2
Atom   2H    basis set group =>   2
Atom   3O    basis set group =>   1
Atom   4H    basis set group =>   2
Atom   5H    basis set group =>   2
Atom   6O    basis set group =>   1
Atom   7H    basis set group =>   2
Atom   8H    basis set group =>   2
Atom   9O    basis set group =>   1
Atom  10H    basis set group =>   2
Atom  11H    basis set group =>   2
Atom  12O    basis set group =>   1
Atom  13H    basis set group =>   2
Atom  14H    basis set group =>   2
Atom  15O    basis set group =>   1
Atom  16H    basis set group =>   2
Atom  17H    basis set group =>   2
Atom  18O    basis set group =>   1
Atom  19H    basis set group =>   2
Atom  20H    basis set group =>   2
Atom  21O    basis set group =>   1
Atom  22H    basis set group =>   2
Atom  23H    basis set group =>   2
Atom  24O    basis set group =>   1
Atom  25H    basis set group =>   2
Atom  26H    basis set group =>   2


           ************************************************************
           *        Program running with 6 parallel MPI-processes     *
           *              working on a common directory               *
           ************************************************************
------------------------------------------------------------------------------
                           ORCA GTO INTEGRAL CALCULATION
------------------------------------------------------------------------------

                         BASIS SET STATISTICS AND STARTUP INFO

 # of primitive gaussian shells          ...  288
 # of primitive gaussian functions       ...  558
 # of contracted shells                  ...  171
 # of contracted basis functions         ...  387
 Highest angular momentum                ...    3
 Maximum contraction depth               ...    6
 Integral package used                   ... LIBINT
 Integral threshhold            Thresh   ...  2.500e-11
 Primitive cut-off              TCut     ...  2.500e-12


------------------------------ INTEGRAL EVALUATION ----------------------------


 * One electron integrals 
 Pre-screening matrix                    ... done
 Shell pair data                         ... done (   0.003 sec)



           ************************************************************
           *        Program running with 6 parallel MPI-processes     *
           *              working on a common directory               *
           ************************************************************
-------------------------------------------------------------------------------
                                 ORCA SCF
-------------------------------------------------------------------------------

------------
SCF SETTINGS
------------
Hamiltonian:
 Ab initio Hamiltonian  Method          .... Hartree-Fock(GTOs)


General Settings:
 Integral files         IntName         .... 12h2o.su.etal.mol0,1,2,3,5,8,9,10,11-orca.engrad-mp2.def2tzvp.frozencore
 Hartree-Fock type      HFTyp           .... RHF
 Total Charge           Charge          ....    0
 Multiplicity           Mult            ....    1
 Number of Electrons    NEL             ....   90
 Basis Dimension        Dim             ....  387
 Nuclear Repulsion      ENuc            ....    538.9173399770 Eh

Convergence Acceleration:
 DIIS                   CNVDIIS         .... on
   Start iteration      DIISMaxIt       ....    12
   Startup error        DIISStart       ....  0.200000
   # of expansion vecs  DIISMaxEq       ....     5
   Bias factor          DIISBfac        ....   1.050
   Max. coefficient     DIISMaxC        ....  10.000
 Newton-Raphson         CNVNR           .... off
 SOSCF                  CNVSOSCF        .... on
   Start iteration      SOSCFMaxIt      ....   150
   Startup grad/error   SOSCFStart      ....  0.003300
 Level Shifting         CNVShift        .... on
   Level shift para.    LevelShift      ....    0.2500
   Turn off err/grad.   ShiftErr        ....    0.0010
 Zerner damping         CNVZerner       .... off
 Static damping         CNVDamp         .... on
   Fraction old density DampFac         ....    0.7000
   Max. Damping (<1)    DampMax         ....    0.9800
   Min. Damping (>=0)   DampMin         ....    0.0000
   Turn off err/grad.   DampErr         ....    0.1000
 Fernandez-Rico         CNVRico         .... off

SCF Procedure:
 Maximum # iterations   MaxIter         ....   125
 SCF integral mode      SCFMode         .... Direct
   Integral package                     .... LIBINT
 Reset frequency        DirectResetFreq ....    20
 Integral Threshold     Thresh          ....  2.500e-11 Eh
 Primitive CutOff       TCut            ....  2.500e-12 Eh

Convergence Tolerance:
 Convergence Check Mode ConvCheckMode   .... Total+1el-Energy
 Convergence forced     ConvForced      .... 1
 Energy Change          TolE            ....  1.000e-08 Eh
 1-El. energy change                    ....  1.000e-05 Eh
 Orbital Gradient       TolG            ....  1.000e-05
 Orbital Rotation angle TolX            ....  1.000e-05
 DIIS Error             TolErr          ....  5.000e-07


Diagonalization of the overlap matrix:
Smallest eigenvalue                        ... 3.685e-03
Time for diagonalization                   ...    0.120 sec
Threshold for overlap eigenvalues          ... 1.000e-08
Number of eigenvalues below threshold      ... 0
Time for construction of square roots      ...    0.012 sec
Total time needed                          ...    0.133 sec

-------------------
DFT GRID GENERATION
-------------------

General Integration Accuracy     IntAcc      ...  4.340
Radial Grid Type                 RadialGrid  ... Gauss-Chebyshev
Angular Grid (max. acc.)         AngularGrid ... Lebedev-110
Angular grid pruning method      GridPruning ... 3 (G Style)
Weight generation scheme         WeightScheme... Becke
Basis function cutoff            BFCut       ...    1.0000e-11
Integration weight cutoff        WCut        ...    1.0000e-14
Grids for H and He will be reduced by one unit

# of grid points (after initial pruning)     ...  29736 (   0.0 sec)
# of grid points (after weights+screening)   ...  27714 (   0.0 sec)
nearest neighbour list constructed           ...    0.0 sec
Grid point re-assignment to atoms done       ...    0.0 sec
Grid point division into batches done        ...    0.0 sec
Reduced shell lists constructed in    0.1 sec

Total number of grid points                  ...    27714
Total number of batches                      ...      448
Average number of points per batch           ...       61
Average number of grid points per atom       ...     1026
Average number of shells per batch           ...    69.57 (40.68%)
Average number of basis functions per batch  ...   136.70 (35.32%)
Average number of large shells per batch     ...    43.97 (63.21%)
Average number of large basis fcns per batch ...    85.55 (62.59%)
Maximum spatial batch extension              ...  14.29, 15.12, 15.71 au
Average spatial batch extension              ...   0.62,  0.69,  0.60 au

Time for grid setup =    0.111 sec

------------------------------
INITIAL GUESS: MODEL POTENTIAL
------------------------------
Loading Hartree-Fock densities                     ... done
Calculating cut-offs                               ... done
Setting up the integral package                    ... done
Initializing the effective Hamiltonian             ... done
Starting the Coulomb interaction                   ... done (   0.1 sec)
Reading the grid                                   ... done
Mapping shells                                     ... done
Starting the XC term evaluation                    ... done (   0.0 sec)
Transforming the Hamiltonian                       ... done (   0.0 sec)
Diagonalizing the Hamiltonian                      ... done (   0.0 sec)
Back transforming the eigenvectors                 ... done (   0.0 sec)
Now organizing SCF variables                       ... done
                      ------------------
                      INITIAL GUESS DONE (   0.3 sec)
                      ------------------
--------------
SCF ITERATIONS
--------------
ITER       Energy         Delta-E        Max-DP      RMS-DP      [F,P]     Damp
               ***  Starting incremental Fock matrix formation  ***
  0   -683.8346641910   0.000000000000 0.04166486  0.00077680  0.3277604 0.7000
  1   -684.1312320735  -0.296567882487 0.02795599  0.00053831  0.2161915 0.7000
                               ***Turning on DIIS***
  2   -684.2891384987  -0.157906425168 0.01618988  0.00030211  0.1633360 0.7000
  3   -685.7693645703  -1.480226071585 0.00762788  0.00013859  0.1213120 0.7000
  4   -685.4702609391   0.299103631143 0.01697655  0.00031791  0.0858576 0.0000
  5   -684.6479325893   0.822328349810 0.00196172  0.00004975  0.0056660 0.0000
                      *** Initiating the SOSCF procedure ***
                           *** Shutting down DIIS ***
                      *** Re-Reading the Fockian *** 
                      *** Removing any level shift *** 
ITER      Energy       Delta-E        Grad      Rot      Max-DP    RMS-DP
  6   -684.60672818   0.0412044127  0.000679  0.000679  0.001329  0.000031
               *** Restarting incremental Fock matrix formation ***
  7   -684.59449125   0.0122369233  0.000234  0.000326  0.000641  0.000014
  8   -684.59450352  -0.0000122619  0.000104  0.000283  0.000512  0.000012
  9   -684.59450656  -0.0000030497  0.000053  0.000034  0.000096  0.000002
 10   -684.59450680  -0.0000002347  0.000011  0.000008  0.000019  0.000000
 11   -684.59450681  -0.0000000088  0.000003  0.000003  0.000006  0.000000
                  ***Gradient check signals convergence***
              ***Rediagonalizing the Fockian in SOSCF/NRSCF***

               *****************************************************
               *                     SUCCESS                       *
               *           SCF CONVERGED AFTER  12 CYCLES          *
               *****************************************************


----------------
TOTAL SCF ENERGY
----------------

Total Energy       :         -684.59450681 Eh          -18628.76360 eV

Components:
Nuclear Repulsion  :          538.91733998 Eh           14664.68636 eV
Electronic Energy  :        -1223.51184678 Eh          -33293.44996 eV
One Electron Energy:        -2020.01799656 Eh          -54967.48418 eV
Two Electron Energy:          796.50614978 Eh           21674.03422 eV

Virial components:
Potential Energy   :        -1368.34126366 Eh          -37234.45875 eV
Kinetic Energy     :          683.74675685 Eh           18605.69515 eV
Virial Ratio       :            2.00123986


---------------
SCF CONVERGENCE
---------------

  Last Energy change         ...    8.7471e-10  Tolerance :   1.0000e-08
  Last MAX-Density change    ...    1.7004e-06  Tolerance :   1.0000e-07
  Last RMS-Density change    ...    3.5506e-08  Tolerance :   5.0000e-09
  Last Orbital Gradient      ...    9.5950e-07  Tolerance :   1.0000e-05
  Last Orbital Rotation      ...    8.3324e-07  Tolerance :   1.0000e-05

             **** THE GBW FILE WAS UPDATED (12h2o.su.etal.mol0,1,2,3,5,8,9,10,11-orca.engrad-mp2.def2tzvp.frozencore.gbw) ****
             **** DENSITY FILE WAS UPDATED (12h2o.su.etal.mol0,1,2,3,5,8,9,10,11-orca.engrad-mp2.def2tzvp.frozencore.scfp) ****
             **** ENERGY FILE WAS UPDATED (12h2o.su.etal.mol0,1,2,3,5,8,9,10,11-orca.engrad-mp2.def2tzvp.frozencore.en.tmp) ****
             **** THE GBW FILE WAS UPDATED (12h2o.su.etal.mol0,1,2,3,5,8,9,10,11-orca.engrad-mp2.def2tzvp.frozencore.gbw) ****
             **** DENSITY FILE WAS UPDATED (12h2o.su.etal.mol0,1,2,3,5,8,9,10,11-orca.engrad-mp2.def2tzvp.frozencore.scfp) ****
----------------
ORBITAL ENERGIES
----------------

  NO   OCC          E(Eh)            E(eV) 
   0   2.0000     -20.587214      -560.2066 
   1   2.0000     -20.580425      -560.0218 
   2   2.0000     -20.576040      -559.9025 
   3   2.0000     -20.564784      -559.5962 
   4   2.0000     -20.562541      -559.5352 
   5   2.0000     -20.556555      -559.3723 
   6   2.0000     -20.546055      -559.0866 
   7   2.0000     -20.535870      -558.8094 
   8   2.0000     -20.534954      -558.7845 
   9   2.0000      -1.383589       -37.6494 
  10   2.0000      -1.367479       -37.2110 
  11   2.0000      -1.361185       -37.0397 
  12   2.0000      -1.357519       -36.9400 
  13   2.0000      -1.344387       -36.5826 
  14   2.0000      -1.336613       -36.3711 
  15   2.0000      -1.332634       -36.2628 
  16   2.0000      -1.327082       -36.1117 
  17   2.0000      -1.311030       -35.6749 
  18   2.0000      -0.747080       -20.3291 
  19   2.0000      -0.738976       -20.1085 
  20   2.0000      -0.725543       -19.7430 
  21   2.0000      -0.719250       -19.5718 
  22   2.0000      -0.716847       -19.5064 
  23   2.0000      -0.714532       -19.4434 
  24   2.0000      -0.712305       -19.3828 
  25   2.0000      -0.696913       -18.9640 
  26   2.0000      -0.690063       -18.7776 
  27   2.0000      -0.641054       -17.4440 
  28   2.0000      -0.614943       -16.7334 
  29   2.0000      -0.609205       -16.5773 
  30   2.0000      -0.604513       -16.4496 
  31   2.0000      -0.592282       -16.1168 
  32   2.0000      -0.575218       -15.6525 
  33   2.0000      -0.573224       -15.5982 
  34   2.0000      -0.566759       -15.4223 
  35   2.0000      -0.541931       -14.7467 
  36   2.0000      -0.530044       -14.4232 
  37   2.0000      -0.526007       -14.3134 
  38   2.0000      -0.516607       -14.0576 
  39   2.0000      -0.508705       -13.8426 
  40   2.0000      -0.507157       -13.8004 
  41   2.0000      -0.505618       -13.7586 
  42   2.0000      -0.495219       -13.4756 
  43   2.0000      -0.485678       -13.2160 
  44   2.0000      -0.481147       -13.0927 
  45   0.0000       0.091124         2.4796 
  46   0.0000       0.131351         3.5742 
  47   0.0000       0.142340         3.8733 
  48   0.0000       0.144862         3.9419 
  49   0.0000       0.162861         4.4317 
  50   0.0000       0.169979         4.6254 
  51   0.0000       0.174594         4.7509 
  52   0.0000       0.205752         5.5988 
  53   0.0000       0.250886         6.8270 
  54   0.0000       0.264416         7.1951 
  55   0.0000       0.275951         7.5090 
  56   0.0000       0.286649         7.8001 
  57   0.0000       0.292049         7.9471 
  58   0.0000       0.320514         8.7216 
  59   0.0000       0.323783         8.8106 
  60   0.0000       0.333736         9.0814 
  61   0.0000       0.343655         9.3513 
  62   0.0000       0.352529         9.5928 
  63   0.0000       0.416067        11.3217 
  64   0.0000       0.448591        12.2068 
  65   0.0000       0.473618        12.8878 
  66   0.0000       0.488436        13.2910 
  67   0.0000       0.492220        13.3940 
  68   0.0000       0.504050        13.7159 
  69   0.0000       0.519132        14.1263 
  70   0.0000       0.525673        14.3043 
  71   0.0000       0.527481        14.3535 
  72   0.0000       0.538603        14.6561 
  73   0.0000       0.549704        14.9582 
  74   0.0000       0.552910        15.0454 
  75   0.0000       0.559999        15.2384 
  76   0.0000       0.570636        15.5278 
  77   0.0000       0.579897        15.7798 
  78   0.0000       0.589188        16.0326 
  79   0.0000       0.595503        16.2044 
  80   0.0000       0.606932        16.5154 
  81   0.0000       0.620671        16.8893 
  82   0.0000       0.625604        17.0236 
  83   0.0000       0.629224        17.1221 
  84   0.0000       0.640482        17.4284 
  85   0.0000       0.643508        17.5107 
  86   0.0000       0.665217        18.1015 
  87   0.0000       0.699216        19.0266 
  88   0.0000       0.708644        19.2832 
  89   0.0000       0.711979        19.3739 
  90   0.0000       0.734121        19.9765 
  91   0.0000       0.738340        20.0913 
  92   0.0000       0.753323        20.4990 
  93   0.0000       0.754948        20.5432 
  94   0.0000       0.761595        20.7240 
  95   0.0000       0.771871        21.0037 
  96   0.0000       0.781419        21.2635 
  97   0.0000       0.786086        21.3905 
  98   0.0000       0.802022        21.8241 
  99   0.0000       0.813297        22.1309 
 100   0.0000       0.816578        22.2202 
 101   0.0000       0.836930        22.7740 
 102   0.0000       0.843347        22.9486 
 103   0.0000       0.859956        23.4006 
 104   0.0000       0.870192        23.6791 
 105   0.0000       0.878761        23.9123 
 106   0.0000       0.892140        24.2764 
 107   0.0000       0.914382        24.8816 
 108   0.0000       0.955645        26.0044 
 109   0.0000       0.961150        26.1542 
 110   0.0000       1.006765        27.3955 
 111   0.0000       1.022986        27.8369 
 112   0.0000       1.044690        28.4275 
 113   0.0000       1.059028        28.8176 
 114   0.0000       1.064843        28.9758 
 115   0.0000       1.112101        30.2618 
 116   0.0000       1.120415        30.4880 
 117   0.0000       1.329956        36.1899 
 118   0.0000       1.365259        37.1506 
 119   0.0000       1.379937        37.5500 
 120   0.0000       1.392538        37.8929 
 121   0.0000       1.393096        37.9081 
 122   0.0000       1.411907        38.4199 
 123   0.0000       1.419629        38.6301 
 124   0.0000       1.420364        38.6501 
 125   0.0000       1.430741        38.9325 
 126   0.0000       1.446094        39.3502 
 127   0.0000       1.451453        39.4960 
 128   0.0000       1.458066        39.6760 
 129   0.0000       1.465616        39.8814 
 130   0.0000       1.477690        40.2100 
 131   0.0000       1.486362        40.4460 
 132   0.0000       1.503602        40.9151 
 133   0.0000       1.537283        41.8316 
 134   0.0000       1.549298        42.1585 
 135   0.0000       1.564114        42.5617 
 136   0.0000       1.570806        42.7438 
 137   0.0000       1.576198        42.8905 
 138   0.0000       1.597629        43.4737 
 139   0.0000       1.605412        43.6855 
 140   0.0000       1.609260        43.7902 
 141   0.0000       1.625891        44.2428 
 142   0.0000       1.640701        44.6457 
 143   0.0000       1.665100        45.3097 
 144   0.0000       1.796412        48.8829 
 145   0.0000       1.820882        49.5487 
 146   0.0000       1.826072        49.6899 
 147   0.0000       1.862477        50.6806 
 148   0.0000       1.865959        50.7753 
 149   0.0000       1.873538        50.9816 
 150   0.0000       1.880163        51.1618 
 151   0.0000       1.912802        52.0500 
 152   0.0000       1.920820        52.2682 
 153   0.0000       1.944321        52.9077 
 154   0.0000       1.950552        53.0772 
 155   0.0000       1.976795        53.7913 
 156   0.0000       1.989324        54.1323 
 157   0.0000       2.011306        54.7304 
 158   0.0000       2.014016        54.8042 
 159   0.0000       2.023804        55.0705 
 160   0.0000       2.030103        55.2419 
 161   0.0000       2.033736        55.3408 
 162   0.0000       2.044694        55.6389 
 163   0.0000       2.075145        56.4676 
 164   0.0000       2.090340        56.8810 
 165   0.0000       2.103928        57.2508 
 166   0.0000       2.126662        57.8694 
 167   0.0000       2.131034        57.9884 
 168   0.0000       2.160120        58.7799 
 169   0.0000       2.187256        59.5183 
 170   0.0000       2.209793        60.1315 
 171   0.0000       2.227269        60.6071 
 172   0.0000       2.235917        60.8424 
 173   0.0000       2.251368        61.2628 
 174   0.0000       2.273473        61.8643 
 175   0.0000       2.289762        62.3076 
 176   0.0000       2.308328        62.8128 
 177   0.0000       2.318498        63.0895 
 178   0.0000       2.321453        63.1700 
 179   0.0000       2.343038        63.7573 
 180   0.0000       2.347470        63.8779 
 181   0.0000       2.361573        64.2617 
 182   0.0000       2.369656        64.4816 
 183   0.0000       2.387891        64.9778 
 184   0.0000       2.395585        65.1872 
 185   0.0000       2.406578        65.4863 
 186   0.0000       2.420543        65.8663 
 187   0.0000       2.451090        66.6975 
 188   0.0000       2.475412        67.3594 
 189   0.0000       2.487130        67.6782 
 190   0.0000       2.492258        67.8178 
 191   0.0000       2.519749        68.5659 
 192   0.0000       2.522725        68.6468 
 193   0.0000       2.527599        68.7795 
 194   0.0000       2.546324        69.2890 
 195   0.0000       2.562906        69.7402 
 196   0.0000       2.575172        70.0740 
 197   0.0000       2.591451        70.5170 
 198   0.0000       2.600378        70.7599 
 199   0.0000       2.611418        71.0603 
 200   0.0000       2.613613        71.1200 
 201   0.0000       2.619726        71.2864 
 202   0.0000       2.635299        71.7101 
 203   0.0000       2.646985        72.0281 
 204   0.0000       2.652661        72.1826 
 205   0.0000       2.660193        72.3875 
 206   0.0000       2.668378        72.6103 
 207   0.0000       2.683650        73.0258 
 208   0.0000       2.695723        73.3544 
 209   0.0000       2.701700        73.5170 
 210   0.0000       2.732624        74.3585 
 211   0.0000       2.756872        75.0183 
 212   0.0000       2.765810        75.2615 
 213   0.0000       2.786488        75.8242 
 214   0.0000       2.797915        76.1351 
 215   0.0000       2.816859        76.6506 
 216   0.0000       2.887042        78.5604 
 217   0.0000       2.910044        79.1863 
 218   0.0000       2.932487        79.7970 
 219   0.0000       2.947053        80.1934 
 220   0.0000       2.956741        80.4570 
 221   0.0000       2.957977        80.4907 
 222   0.0000       2.965522        80.6959 
 223   0.0000       2.986078        81.2553 
 224   0.0000       2.997101        81.5553 
 225   0.0000       3.007414        81.8359 
 226   0.0000       3.015385        82.0528 
 227   0.0000       3.026828        82.3642 
 228   0.0000       3.034189        82.5645 
 229   0.0000       3.036683        82.6323 
 230   0.0000       3.049757        82.9881 
 231   0.0000       3.070100        83.5417 
 232   0.0000       3.086588        83.9903 
 233   0.0000       3.118065        84.8469 
 234   0.0000       3.129493        85.1578 
 235   0.0000       3.146986        85.6338 
 236   0.0000       3.151324        85.7519 
 237   0.0000       3.172003        86.3146 
 238   0.0000       3.189986        86.8039 
 239   0.0000       3.217773        87.5601 
 240   0.0000       3.242426        88.2309 
 241   0.0000       3.271540        89.0231 
 242   0.0000       3.314840        90.2014 
 243   0.0000       3.317831        90.2828 
 244   0.0000       3.320599        90.3581 
 245   0.0000       3.342554        90.9555 
 246   0.0000       3.353875        91.2636 
 247   0.0000       3.368910        91.6727 
 248   0.0000       3.491181        94.9999 
 249   0.0000       3.514646        95.6384 
 250   0.0000       3.519553        95.7719 
 251   0.0000       3.545316        96.4729 
 252   0.0000       4.019155       109.3668 
 253   0.0000       4.025454       109.5382 
 254   0.0000       4.033140       109.7473 
 255   0.0000       4.070564       110.7657 
 256   0.0000       4.088901       111.2647 
 257   0.0000       4.112577       111.9089 
 258   0.0000       4.117130       112.0328 
 259   0.0000       4.132089       112.4399 
 260   0.0000       4.165201       113.3409 
 261   0.0000       4.293512       116.8324 
 262   0.0000       4.302983       117.0901 
 263   0.0000       4.315369       117.4272 
 264   0.0000       4.321807       117.6023 
 265   0.0000       4.349010       118.3426 
 266   0.0000       4.357443       118.5721 
 267   0.0000       4.378987       119.1583 
 268   0.0000       4.386990       119.3761 
 269   0.0000       4.410963       120.0284 
 270   0.0000       5.515658       150.0887 
 271   0.0000       5.524614       150.3324 
 272   0.0000       5.527235       150.4037 
 273   0.0000       5.538145       150.7006 
 274   0.0000       5.546230       150.9206 
 275   0.0000       5.548488       150.9820 
 276   0.0000       5.556652       151.2042 
 277   0.0000       5.563646       151.3945 
 278   0.0000       5.567715       151.5052 
 279   0.0000       5.619888       152.9249 
 280   0.0000       5.642968       153.5530 
 281   0.0000       5.654442       153.8652 
 282   0.0000       5.658585       153.9779 
 283   0.0000       5.665469       154.1653 
 284   0.0000       5.666193       154.1850 
 285   0.0000       5.677057       154.4806 
 286   0.0000       5.688678       154.7968 
 287   0.0000       5.713383       155.4691 
 288   0.0000       5.787602       157.4887 
 289   0.0000       5.803649       157.9253 
 290   0.0000       5.805318       157.9707 
 291   0.0000       5.816090       158.2639 
 292   0.0000       5.816350       158.2709 
 293   0.0000       5.817954       158.3146 
 294   0.0000       5.826639       158.5509 
 295   0.0000       5.828029       158.5887 
 296   0.0000       5.834433       158.7630 
 297   0.0000       5.842216       158.9748 
 298   0.0000       5.852328       159.2499 
 299   0.0000       5.854765       159.3163 
 300   0.0000       5.860525       159.4730 
 301   0.0000       5.867255       159.6561 
 302   0.0000       5.868259       159.6834 
 303   0.0000       5.877962       159.9475 
 304   0.0000       5.878766       159.9693 
 305   0.0000       5.880479       160.0160 
 306   0.0000       5.888110       160.2236 
 307   0.0000       5.891369       160.3123 
 308   0.0000       5.897449       160.4777 
 309   0.0000       5.908368       160.7749 
 310   0.0000       5.910706       160.8385 
 311   0.0000       5.925248       161.2342 
 312   0.0000       5.931691       161.4095 
 313   0.0000       5.940682       161.6542 
 314   0.0000       5.955507       162.0576 
 315   0.0000       6.454768       175.6432 
 316   0.0000       6.461082       175.8150 
 317   0.0000       6.467407       175.9871 
 318   0.0000       6.475766       176.2145 
 319   0.0000       6.478741       176.2955 
 320   0.0000       6.484770       176.4596 
 321   0.0000       6.487299       176.5284 
 322   0.0000       6.503815       176.9778 
 323   0.0000       6.516199       177.3148 
 324   0.0000       6.650357       180.9654 
 325   0.0000       6.675746       181.6563 
 326   0.0000       6.681722       181.8189 
 327   0.0000       6.715392       182.7351 
 328   0.0000       6.721979       182.9143 
 329   0.0000       6.725552       183.0116 
 330   0.0000       6.748114       183.6255 
 331   0.0000       6.761732       183.9961 
 332   0.0000       6.775378       184.3674 
 333   0.0000       6.823068       185.6651 
 334   0.0000       6.839767       186.1195 
 335   0.0000       6.844544       186.2495 
 336   0.0000       6.857075       186.5905 
 337   0.0000       6.862497       186.7380 
 338   0.0000       6.879901       187.2116 
 339   0.0000       6.894941       187.6209 
 340   0.0000       6.906097       187.9244 
 341   0.0000       6.909517       188.0175 
 342   0.0000       6.917063       188.2229 
 343   0.0000       6.918403       188.2593 
 344   0.0000       6.924433       188.4234 
 345   0.0000       6.929614       188.5644 
 346   0.0000       6.936256       188.7451 
 347   0.0000       6.941760       188.8949 
 348   0.0000       6.954580       189.2438 
 349   0.0000       6.959336       189.3732 
 350   0.0000       6.966863       189.5780 
 351   0.0000       6.979484       189.9214 
 352   0.0000       6.983408       190.0282 
 353   0.0000       6.991328       190.2437 
 354   0.0000       7.005378       190.6260 
 355   0.0000       7.019249       191.0035 
 356   0.0000       7.073000       192.4661 
 357   0.0000       7.092773       193.0042 
 358   0.0000       7.098277       193.1539 
 359   0.0000       7.130641       194.0346 
 360   0.0000       7.348416       199.9606 
 361   0.0000       7.380510       200.8339 
 362   0.0000       7.397987       201.3095 
 363   0.0000       7.439704       202.4446 
 364   0.0000       7.462952       203.0772 
 365   0.0000       7.468602       203.2310 
 366   0.0000       7.480762       203.5619 
 367   0.0000       7.490032       203.8141 
 368   0.0000       7.511488       204.3980 
 369   0.0000       7.523094       204.7138 
 370   0.0000       7.537130       205.0957 
 371   0.0000       7.546375       205.3473 
 372   0.0000       7.549550       205.4337 
 373   0.0000       7.564744       205.8471 
 374   0.0000       7.568345       205.9451 
 375   0.0000       7.584588       206.3871 
 376   0.0000       7.596726       206.7174 
 377   0.0000       7.614584       207.2034 
 378   0.0000      44.952606      1223.2226 
 379   0.0000      44.968043      1223.6427 
 380   0.0000      44.976108      1223.8621 
 381   0.0000      44.986249      1224.1381 
 382   0.0000      44.997133      1224.4342 
 383   0.0000      45.003866      1224.6175 
 384   0.0000      45.015279      1224.9280 
 385   0.0000      45.050700      1225.8919 
 386   0.0000      45.074087      1226.5283 

                    ********************************
                    * MULLIKEN POPULATION ANALYSIS *
                    ********************************

-----------------------
MULLIKEN ATOMIC CHARGES
-----------------------
   0 O :   -0.780953
   1 H :    0.350043
   2 H :    0.407699
   3 O :   -0.781434
   4 H :    0.345111
   5 H :    0.415022
   6 O :   -0.795927
   7 H :    0.364826
   8 H :    0.412169
   9 O :   -0.745414
  10 H :    0.372120
  11 H :    0.399472
  12 O :   -0.742064
  13 H :    0.340893
  14 H :    0.396197
  15 O :   -0.742076
  16 H :    0.358660
  17 H :    0.406969
  18 O :   -0.769042
  19 H :    0.401299
  20 H :    0.386548
  21 O :   -0.780694
  22 H :    0.353265
  23 H :    0.408849
  24 O :   -0.744990
  25 H :    0.360210
  26 H :    0.403244
Sum of atomic charges:    0.0000000

--------------------------------
MULLIKEN REDUCED ORBITAL CHARGES
--------------------------------
  0 O s       :     3.806242  s :     3.806242
      pz      :     1.731920  p :     4.950649
      px      :     1.435025
      py      :     1.783704
      dz2     :     0.003934  d :     0.022645
      dxz     :     0.004779
      dyz     :     0.005172
      dx2y2   :     0.002257
      dxy     :     0.006504
      f0      :     0.000088  f :     0.001417
      f+1     :     0.000331
      f-1     :     0.000175
      f+2     :     0.000061
      f-2     :     0.000355
      f+3     :     0.000081
      f-3     :     0.000326
  1 H s       :     0.604323  s :     0.604323
      pz      :     0.017095  p :     0.045634
      px      :     0.013689
      py      :     0.014850
  2 H s       :     0.535963  s :     0.535963
      pz      :     0.010382  p :     0.056338
      px      :     0.032824
      py      :     0.013132
  3 O s       :     3.806835  s :     3.806835
      pz      :     1.731428  p :     4.950585
      px      :     1.440517
      py      :     1.778640
      dz2     :     0.004039  d :     0.022603
      dxz     :     0.004933
      dyz     :     0.005159
      dx2y2   :     0.002219
      dxy     :     0.006253
      f0      :     0.000089  f :     0.001411
      f+1     :     0.000332
      f-1     :     0.000174
      f+2     :     0.000060
      f-2     :     0.000354
      f+3     :     0.000080
      f-3     :     0.000322
  4 H s       :     0.609210  s :     0.609210
      pz      :     0.017195  p :     0.045679
      px      :     0.013631
      py      :     0.014853
  5 H s       :     0.528630  s :     0.528630
      pz      :     0.010257  p :     0.056349
      px      :     0.033063
      py      :     0.013029
  6 O s       :     3.808091  s :     3.808091
      pz      :     1.727103  p :     4.964561
      px      :     1.794327
      py      :     1.443132
      dz2     :     0.003593  d :     0.021897
      dxz     :     0.005028
      dyz     :     0.004382
      dx2y2   :     0.002204
      dxy     :     0.006691
      f0      :     0.000080  f :     0.001378
      f+1     :     0.000168
      f-1     :     0.000315
      f+2     :     0.000060
      f-2     :     0.000345
      f+3     :     0.000328
      f-3     :     0.000081
  7 H s       :     0.589978  s :     0.589978
      pz      :     0.016880  p :     0.045196
      px      :     0.014602
      py      :     0.013714
  8 H s       :     0.532023  s :     0.532023
      pz      :     0.009909  p :     0.055808
      px      :     0.013072
      py      :     0.032827
  9 O s       :     3.796360  s :     3.796360
      pz      :     1.531123  p :     4.922949
      px      :     1.601717
      py      :     1.790109
      dz2     :     0.012304  d :     0.024717
      dxz     :     0.001232
      dyz     :     0.002283
      dx2y2   :     0.002313
      dxy     :     0.006584
      f0      :     0.000250  f :     0.001388
      f+1     :     0.000388
      f-1     :     0.000155
      f+2     :     0.000052
      f-2     :     0.000056
      f+3     :     0.000046
      f-3     :     0.000441
 10 H s       :     0.584416  s :     0.584416
      pz      :     0.019399  p :     0.043465
      px      :     0.011531
      py      :     0.012535
 11 H s       :     0.551232  s :     0.551232
      pz      :     0.009455  p :     0.049296
      px      :     0.024378
      py      :     0.015463
 12 O s       :     3.808253  s :     3.808253
      pz      :     1.594008  p :     4.908689
      px      :     1.875834
      py      :     1.438847
      dz2     :     0.010103  d :     0.023651
      dxz     :     0.002415
      dyz     :     0.002503
      dx2y2   :     0.003129
      dxy     :     0.005501
      f0      :     0.000181  f :     0.001471
      f+1     :     0.000124
      f-1     :     0.000429
      f+2     :     0.000079
      f-2     :     0.000036
      f+3     :     0.000492
      f-3     :     0.000130
 13 H s       :     0.615885  s :     0.615885
      pz      :     0.009812  p :     0.043222
      px      :     0.015308
      py      :     0.018102
 14 H s       :     0.554394  s :     0.554394
      pz      :     0.024923  p :     0.049408
      px      :     0.013244
      py      :     0.011241
 15 O s       :     3.795332  s :     3.795332
      pz      :     1.519265  p :     4.920752
      px      :     1.610503
      py      :     1.790984
      dz2     :     0.012338  d :     0.024612
      dxz     :     0.001273
      dyz     :     0.002267
      dx2y2   :     0.002270
      dxy     :     0.006464
      f0      :     0.000251  f :     0.001380
      f+1     :     0.000388
      f-1     :     0.000154
      f+2     :     0.000051
      f-2     :     0.000055
      f+3     :     0.000044
      f-3     :     0.000437
 16 H s       :     0.597462  s :     0.597462
      pz      :     0.019161  p :     0.043878
      px      :     0.011845
      py      :     0.012872
 17 H s       :     0.543843  s :     0.543843
      pz      :     0.009170  p :     0.049188
      px      :     0.024836
      py      :     0.015183
 18 O s       :     3.792060  s :     3.792060
      pz      :     1.573654  p :     4.951877
      px      :     1.786731
      py      :     1.591492
      dz2     :     0.011594  d :     0.023765
      dxz     :     0.002203
      dyz     :     0.001183
      dx2y2   :     0.002252
      dxy     :     0.006533
      f0      :     0.000229  f :     0.001340
      f+1     :     0.000148
      f-1     :     0.000377
      f+2     :     0.000051
      f-2     :     0.000054
      f+3     :     0.000435
      f-3     :     0.000045
 19 H s       :     0.551094  s :     0.551094
      pz      :     0.024729  p :     0.047607
      px      :     0.011891
      py      :     0.010987
 20 H s       :     0.563720  s :     0.563720
      pz      :     0.009783  p :     0.049731
      px      :     0.015662
      py      :     0.024286
 21 O s       :     3.806283  s :     3.806283
      pz      :     1.735790  p :     4.950328
      px      :     1.778831
      py      :     1.435707
      dz2     :     0.004038  d :     0.022670
      dxz     :     0.005175
      dyz     :     0.004874
      dx2y2   :     0.002273
      dxy     :     0.006309
      f0      :     0.000089  f :     0.001414
      f+1     :     0.000174
      f-1     :     0.000333
      f+2     :     0.000060
      f-2     :     0.000354
      f+3     :     0.000324
      f-3     :     0.000080
 22 H s       :     0.601180  s :     0.601180
      pz      :     0.017226  p :     0.045555
      px      :     0.014740
      py      :     0.013588
 23 H s       :     0.534725  s :     0.534725
      pz      :     0.010412  p :     0.056426
      px      :     0.013184
      py      :     0.032831
 24 O s       :     3.795061  s :     3.795061
      pz      :     1.520382  p :     4.924001
      px      :     1.793564
      py      :     1.610055
      dz2     :     0.012259  d :     0.024543
      dxz     :     0.002293
      dyz     :     0.001258
      dx2y2   :     0.002229
      dxy     :     0.006504
      f0      :     0.000252  f :     0.001386
      f+1     :     0.000155
      f-1     :     0.000388
      f+2     :     0.000052
      f-2     :     0.000056
      f+3     :     0.000438
      f-3     :     0.000045
 25 H s       :     0.596130  s :     0.596130
      pz      :     0.019214  p :     0.043659
      px      :     0.012730
      py      :     0.011715
 26 H s       :     0.547530  s :     0.547530
      pz      :     0.009203  p :     0.049227
      px      :     0.015213
      py      :     0.024811


                     *******************************
                     * LOEWDIN POPULATION ANALYSIS *
                     *******************************

----------------------
LOEWDIN ATOMIC CHARGES
----------------------
   0 O :   -0.351689
   1 H :    0.154902
   2 H :    0.155322
   3 O :   -0.350907
   4 H :    0.152655
   5 H :    0.156836
   6 O :   -0.326538
   7 H :    0.160908
   8 H :    0.156356
   9 O :   -0.293114
  10 H :    0.175129
  11 H :    0.160865
  12 O :   -0.331254
  13 H :    0.166280
  14 H :    0.158911
  15 O :   -0.290879
  16 H :    0.168087
  17 H :    0.164510
  18 O :   -0.303464
  19 H :    0.161735
  20 H :    0.155376
  21 O :   -0.349766
  22 H :    0.156574
  23 H :    0.155488
  24 O :   -0.295413
  25 H :    0.170020
  26 H :    0.163070

-------------------------------
LOEWDIN REDUCED ORBITAL CHARGES
-------------------------------
  0 O s       :     3.460444  s :     3.460444
      pz      :     1.710371  p :     4.860684
      px      :     1.403828
      py      :     1.746486
      dz2     :     0.004254  d :     0.028602
      dxz     :     0.006970
      dyz     :     0.005306
      dx2y2   :     0.003663
      dxy     :     0.008409
      f0      :     0.000073  f :     0.001959
      f+1     :     0.000436
      f-1     :     0.000261
      f+2     :     0.000032
      f-2     :     0.000619
      f+3     :     0.000082
      f-3     :     0.000456
  1 H s       :     0.680182  s :     0.680182
      pz      :     0.065796  p :     0.164916
      px      :     0.046074
      py      :     0.053046
  2 H s       :     0.647160  s :     0.647160
      pz      :     0.033248  p :     0.197518
      px      :     0.116642
      py      :     0.047629
  3 O s       :     3.460507  s :     3.460507
      pz      :     1.709547  p :     4.859867
      px      :     1.406485
      py      :     1.743836
      dz2     :     0.004277  d :     0.028582
      dxz     :     0.007184
      dyz     :     0.005349
      dx2y2   :     0.003625
      dxy     :     0.008146
      f0      :     0.000074  f :     0.001951
      f+1     :     0.000434
      f-1     :     0.000259
      f+2     :     0.000032
      f-2     :     0.000624
      f+3     :     0.000082
      f-3     :     0.000446
  4 H s       :     0.682492  s :     0.682492
      pz      :     0.065846  p :     0.164853
      px      :     0.046119
      py      :     0.052888
  5 H s       :     0.644602  s :     0.644602
      pz      :     0.033125  p :     0.198562
      px      :     0.117938
      py      :     0.047499
  6 O s       :     3.454714  s :     3.454714
      pz      :     1.683867  p :     4.841576
      px      :     1.750340
      py      :     1.407369
      dz2     :     0.004667  d :     0.028310
      dxz     :     0.005104
      dyz     :     0.006574
      dx2y2   :     0.003607
      dxy     :     0.008357
      f0      :     0.000085  f :     0.001938
      f+1     :     0.000256
      f-1     :     0.000426
      f+2     :     0.000032
      f-2     :     0.000603
      f+3     :     0.000455
      f-3     :     0.000083
  7 H s       :     0.673572  s :     0.673572
      pz      :     0.066196  p :     0.165521
      px      :     0.052999
      py      :     0.046326
  8 H s       :     0.644853  s :     0.644853
      pz      :     0.033273  p :     0.198791
      px      :     0.047703
      py      :     0.117815
  9 O s       :     3.451693  s :     3.451693
      pz      :     1.520293  p :     4.808325
      px      :     1.557180
      py      :     1.730852
      dz2     :     0.015927  d :     0.031020
      dxz     :     0.001999
      dyz     :     0.001815
      dx2y2   :     0.003341
      dxy     :     0.007938
      f0      :     0.000458  f :     0.002077
      f+1     :     0.000568
      f-1     :     0.000330
      f+2     :     0.000021
      f-2     :     0.000051
      f+3     :     0.000025
      f-3     :     0.000624
 10 H s       :     0.665447  s :     0.665447
      pz      :     0.081215  p :     0.159423
      px      :     0.036596
      py      :     0.041612
 11 H s       :     0.663761  s :     0.663761
      pz      :     0.029597  p :     0.175374
      px      :     0.087657
      py      :     0.058120
 12 O s       :     3.463269  s :     3.463269
      pz      :     1.557488  p :     4.834995
      px      :     1.834130
      py      :     1.443377
      dz2     :     0.014065  d :     0.030932
      dxz     :     0.001571
      dyz     :     0.003681
      dx2y2   :     0.004471
      dxy     :     0.007144
      f0      :     0.000351  f :     0.002057
      f+1     :     0.000192
      f-1     :     0.000701
      f+2     :     0.000043
      f-2     :     0.000040
      f+3     :     0.000653
      f-3     :     0.000076
 13 H s       :     0.680106  s :     0.680106
      pz      :     0.030714  p :     0.153614
      px      :     0.049258
      py      :     0.073642
 14 H s       :     0.668555  s :     0.668555
      pz      :     0.094580  p :     0.172535
      px      :     0.042566
      py      :     0.035388
 15 O s       :     3.451467  s :     3.451467
      pz      :     1.513753  p :     4.806322
      px      :     1.561998
      py      :     1.730570
      dz2     :     0.016229  d :     0.031020
      dxz     :     0.002107
      dyz     :     0.001820
      dx2y2   :     0.003253
      dxy     :     0.007611
      f0      :     0.000473  f :     0.002071
      f+1     :     0.000568
      f-1     :     0.000327
      f+2     :     0.000020
      f-2     :     0.000052
      f+3     :     0.000025
      f-3     :     0.000605
 16 H s       :     0.672607  s :     0.672607
      pz      :     0.080342  p :     0.159306
      px      :     0.036935
      py      :     0.042029
 17 H s       :     0.658670  s :     0.658670
      pz      :     0.029153  p :     0.176820
      px      :     0.089518
      py      :     0.058149
 18 O s       :     3.445928  s :     3.445928
      pz      :     1.544003  p :     4.826189
      px      :     1.728025
      py      :     1.554161
      dz2     :     0.014551  d :     0.029356
      dxz     :     0.001678
      dyz     :     0.001798
      dx2y2   :     0.003318
      dxy     :     0.008011
      f0      :     0.000411  f :     0.001991
      f+1     :     0.000319
      f-1     :     0.000538
      f+2     :     0.000019
      f-2     :     0.000049
      f+3     :     0.000630
      f-3     :     0.000025
 19 H s       :     0.665837  s :     0.665837
      pz      :     0.094035  p :     0.172429
      px      :     0.041463
      py      :     0.036931
 20 H s       :     0.668367  s :     0.668367
      pz      :     0.030966  p :     0.176257
      px      :     0.058052
      py      :     0.087239
 21 O s       :     3.460237  s :     3.460237
      pz      :     1.711348  p :     4.859031
      px      :     1.743785
      py      :     1.403898
      dz2     :     0.004310  d :     0.028549
      dxz     :     0.005279
      dyz     :     0.007007
      dx2y2   :     0.003728
      dxy     :     0.008224
      f0      :     0.000074  f :     0.001950
      f+1     :     0.000258
      f-1     :     0.000435
      f+2     :     0.000031
      f-2     :     0.000617
      f+3     :     0.000452
      f-3     :     0.000083
 22 H s       :     0.678568  s :     0.678568
      pz      :     0.065915  p :     0.164858
      px      :     0.052785
      py      :     0.046158
 23 H s       :     0.647016  s :     0.647016
      pz      :     0.033361  p :     0.197496
      px      :     0.047584
      py      :     0.116550
 24 O s       :     3.452291  s :     3.452291
      pz      :     1.515434  p :     4.810137
      px      :     1.732466
      py      :     1.562237
      dz2     :     0.016058  d :     0.030910
      dxz     :     0.001847
      dyz     :     0.002115
      dx2y2   :     0.003217
      dxy     :     0.007673
      f0      :     0.000469  f :     0.002075
      f+1     :     0.000330
      f-1     :     0.000570
      f+2     :     0.000021
      f-2     :     0.000052
      f+3     :     0.000609
      f-3     :     0.000025
 25 H s       :     0.670823  s :     0.670823
      pz      :     0.080432  p :     0.159157
      px      :     0.041914
      py      :     0.036811
 26 H s       :     0.659989  s :     0.659989
      pz      :     0.029196  p :     0.176941
      px      :     0.058247
      py      :     0.089499


                      *****************************
                      * MAYER POPULATION ANALYSIS *
                      *****************************

  NA   - Mulliken gross atomic population
  ZA   - Total nuclear charge
  QA   - Mulliken gross atomic charge
  VA   - Mayer's total valence
  BVA  - Mayer's bonded valence
  FA   - Mayer's free valence

  ATOM       NA         ZA         QA         VA         BVA        FA
  0 O      8.7810     8.0000    -0.7810     1.6826     1.6826     0.0000
  1 H      0.6500     1.0000     0.3500     0.8940     0.8940     0.0000
  2 H      0.5923     1.0000     0.4077     0.8726     0.8726     0.0000
  3 O      8.7814     8.0000    -0.7814     1.6830     1.6830     0.0000
  4 H      0.6549     1.0000     0.3451     0.8971     0.8971     0.0000
  5 H      0.5850     1.0000     0.4150     0.8673     0.8673     0.0000
  6 O      8.7959     8.0000    -0.7959     1.6730     1.6730    -0.0000
  7 H      0.6352     1.0000     0.3648     0.8840     0.8840     0.0000
  8 H      0.5878     1.0000     0.4122     0.8691     0.8691    -0.0000
  9 O      8.7454     8.0000    -0.7454     1.7435     1.7435    -0.0000
 10 H      0.6279     1.0000     0.3721     0.8760     0.8760     0.0000
 11 H      0.6005     1.0000     0.3995     0.8746     0.8746    -0.0000
 12 O      8.7421     8.0000    -0.7421     1.7406     1.7406     0.0000
 13 H      0.6591     1.0000     0.3409     0.9037     0.9037    -0.0000
 14 H      0.6038     1.0000     0.3962     0.8740     0.8740     0.0000
 15 O      8.7421     8.0000    -0.7421     1.7384     1.7384     0.0000
 16 H      0.6413     1.0000     0.3587     0.8859     0.8859     0.0000
 17 H      0.5930     1.0000     0.4070     0.8744     0.8744     0.0000
 18 O      8.7690     8.0000    -0.7690     1.7177     1.7177     0.0000
 19 H      0.5987     1.0000     0.4013     0.8637     0.8637     0.0000
 20 H      0.6135     1.0000     0.3865     0.8889     0.8889     0.0000
 21 O      8.7807     8.0000    -0.7807     1.6877     1.6877    -0.0000
 22 H      0.6467     1.0000     0.3533     0.8916     0.8916    -0.0000
 23 H      0.5912     1.0000     0.4088     0.8714     0.8714    -0.0000
 24 O      8.7450     8.0000    -0.7450     1.7329     1.7329    -0.0000
 25 H      0.6398     1.0000     0.3602     0.8832     0.8832    -0.0000
 26 H      0.5968     1.0000     0.4032     0.8789     0.8789    -0.0000

  Mayer bond orders larger than 0.100000
B(  0-O ,  1-H ) :   0.8860 B(  0-O ,  2-H ) :   0.7843 B(  3-O ,  4-H ) :   0.8888 
B(  3-O ,  5-H ) :   0.7737 B(  6-O ,  7-H ) :   0.8745 B(  6-O ,  8-H ) :   0.7713 
B(  9-O , 10-H ) :   0.8692 B(  9-O , 11-H ) :   0.8258 B( 12-O , 13-H ) :   0.8868 
B( 12-O , 14-H ) :   0.8354 B( 15-O , 16-H ) :   0.8792 B( 15-O , 17-H ) :   0.8084 
B( 18-O , 19-H ) :   0.8355 B( 18-O , 20-H ) :   0.8325 B( 21-O , 22-H ) :   0.8835 
B( 21-O , 23-H ) :   0.7835 B( 24-O , 25-H ) :   0.8784 B( 24-O , 26-H ) :   0.8109 


-------
TIMINGS
-------

Total SCF time: 0 days 0 hours 0 min 31 sec 

Total time                  ....      31.718 sec
Sum of individual times     ....      31.283 sec  ( 98.6%)

Fock matrix formation       ....      30.543 sec  ( 96.3%)
Diagonalization             ....       0.198 sec  (  0.6%)
Density matrix formation    ....       0.021 sec  (  0.1%)
Population analysis         ....       0.019 sec  (  0.1%)
Initial guess               ....       0.218 sec  (  0.7%)
Orbital Transformation      ....       0.000 sec  (  0.0%)
Orbital Orthonormalization  ....       0.000 sec  (  0.0%)
DIIS solution               ....       0.071 sec  (  0.2%)
SOSCF solution              ....       0.101 sec  (  0.3%)


           ************************************************************
           *        Program running with 6 parallel MPI-processes     *
           *              working on a common directory               *
           ************************************************************

------------------------------------------------------------------------------
                                ORCA  MP2 
------------------------------------------------------------------------------

Freezing NCore=18 chemical core electrons
MP2 will be done in the AO integral direct mode
The Q1-step will be done using symmetric double matrices
Dimension of the basis                    ...  387
Memory devoted for MP2                    ... 8000 MB   
Memory needed for all in one shot         ... 1331 MB
Number of MOs that can be treated together...   35      
MP2 density construction                  ... relaxed
The MP2 gradient is requested => amplitudes will be stored on disk
Total number of MOs              ...   36
Number of MOs treated per batch  ...    6 
Number of batches necessary      ...    1 
OPERATORS   0/  0 PASS   0
-----------------------------------------------
 MP2 CORRELATION ENERGY   :     -2.332398460 Eh
-----------------------------------------------


---------------------
MP2 DENSITY FORMATION
---------------------

Completing the external part of the density      ... done
Storing the unrelaxed density                    ... done

Calculating G(D)                                 ... done
Completing the Lagrangian                        ... done
Solving the Z-vector equations                   ... 

------------------------------------------------------------------------------
                           ORCA CP-SCF CALCULATION
------------------------------------------------------------------------------

Input orbitals are from        ... 12h2o.su.etal.mol0,1,2,3,5,8,9,10,11-orca.engrad-mp2.def2tzvp.frozencore.gbw
Input Perturbation             ... 12h2o.su.etal.mol0,1,2,3,5,8,9,10,11-orca.engrad-mp2.def2tzvp.frozencore.pin.tmp
Wavefunction output            ... 12h2o.su.etal.mol0,1,2,3,5,8,9,10,11-orca.engrad-mp2.def2tzvp.frozencore.pout.tmp
Perturbation mode              ... Real perturbation (singlet)
Solver                         ... POPLE
Max. number of iterations      ... 128
Convergence tolerance          ... 1.000e-08
Integral handling              ... Direct
Number of perturbations        ... 1
Number of operators            ... 1
Orbital ranges used for CP-SCF:
 Operator 0:  Orbitals   0... 44  to  45...386
Variables per vector in CP-SCF ... 15390
Number of vectors sought       ... 1
     CP-SCF ITERATION   0: 
     CP-SCF ITERATION   1:      0.001189725648
     CP-SCF ITERATION   2:      0.000033072329
     CP-SCF ITERATION   3:      0.000001174068
     CP-SCF ITERATION   4:      0.000000166725
     CP-SCF ITERATION   5:      0.000000013686
     CP-SCF ITERATION   6:      0.000000000705
                                                 ... done
Finalizing the relaxed density                   ... done
Transforming P to the AO basis                   ... done
Storing the relaxed density                      ... done

------------------------------------
ENERGY WEIGHTED DENSITY FINALIZATION
------------------------------------

Gathering the parts of the W-matrix              ...                                                      done
Forming the Z-density                            ... done
Transforming Z to the AO basis                   ... done
Calculating G(Z)                                 ... done
Finalizing the W-matrix                          ...                                                      done
Transforming W to the AO basis and storing       ... done

                *********************************************
                * UNRELAXED MP2 DENSITY POPULATION ANALYSIS *
                *********************************************

------------------------------------------------------------------------------
                           ORCA POPULATION ANALYSIS
------------------------------------------------------------------------------
Input electron density              ... 12h2o.su.etal.mol0,1,2,3,5,8,9,10,11-orca.engrad-mp2.def2tzvp.frozencore.pmp2ur
BaseName (.gbw .S,...)              ... 12h2o.su.etal.mol0,1,2,3,5,8,9,10,11-orca.engrad-mp2.def2tzvp.frozencore

                    ********************************
                    * MULLIKEN POPULATION ANALYSIS *
                    ********************************

-----------------------
MULLIKEN ATOMIC CHARGES
-----------------------
   0 O :   -0.774658
   1 H :    0.347754
   2 H :    0.402922
   3 O :   -0.775005
   4 H :    0.342810
   5 H :    0.410158
   6 O :   -0.789218
   7 H :    0.362503
   8 H :    0.407177
   9 O :   -0.738650
  10 H :    0.369662
  11 H :    0.395975
  12 O :   -0.736364
  13 H :    0.338020
  14 H :    0.393187
  15 O :   -0.735111
  16 H :    0.356209
  17 H :    0.403320
  18 O :   -0.761790
  19 H :    0.398301
  20 H :    0.382907
  21 O :   -0.774286
  22 H :    0.350989
  23 H :    0.404097
  24 O :   -0.738214
  25 H :    0.357795
  26 H :    0.399509
Sum of atomic charges:    0.0000000

--------------------------------
MULLIKEN REDUCED ORBITAL CHARGES
--------------------------------
  0 O s       :     3.801258  s :     3.801258
      pz      :     1.721279  p :     4.919214
      px      :     1.426253
      py      :     1.771681
      dz2     :     0.009458  d :     0.050186
      dxz     :     0.010195
      dyz     :     0.010633
      dx2y2   :     0.007901
      dxy     :     0.011999
      f0      :     0.000458  f :     0.004001
      f+1     :     0.000697
      f-1     :     0.000540
      f+2     :     0.000432
      f-2     :     0.000721
      f+3     :     0.000458
      f-3     :     0.000695
  1 H s       :     0.604964  s :     0.604964
      pz      :     0.017580  p :     0.047282
      px      :     0.014141
      py      :     0.015561
  2 H s       :     0.539114  s :     0.539114
      pz      :     0.011194  p :     0.057964
      px      :     0.032935
      py      :     0.013836
  3 O s       :     3.801811  s :     3.801811
      pz      :     1.720804  p :     4.919066
      px      :     1.431711
      py      :     1.766550
      dz2     :     0.009556  d :     0.050133
      dxz     :     0.010348
      dyz     :     0.010605
      dx2y2   :     0.007866
      dxy     :     0.011758
      f0      :     0.000459  f :     0.003995
      f+1     :     0.000698
      f-1     :     0.000539
      f+2     :     0.000431
      f-2     :     0.000720
      f+3     :     0.000457
      f-3     :     0.000691
  4 H s       :     0.609847  s :     0.609847
      pz      :     0.017691  p :     0.047343
      px      :     0.014094
      py      :     0.015559
  5 H s       :     0.531885  s :     0.531885
      pz      :     0.011065  p :     0.057957
      px      :     0.033175
      py      :     0.013717
  6 O s       :     3.803157  s :     3.803157
      pz      :     1.715954  p :     4.932230
      px      :     1.782183
      py      :     1.434093
      dz2     :     0.009281  d :     0.049854
      dxz     :     0.010576
      dyz     :     0.009917
      dx2y2   :     0.007878
      dxy     :     0.012202
      f0      :     0.000454  f :     0.003976
      f+1     :     0.000536
      f-1     :     0.000683
      f+2     :     0.000433
      f-2     :     0.000713
      f+3     :     0.000698
      f-3     :     0.000459
  7 H s       :     0.590719  s :     0.590719
      pz      :     0.017342  p :     0.046777
      px      :     0.015286
      py      :     0.014149
  8 H s       :     0.535404  s :     0.535404
      pz      :     0.010708  p :     0.057419
      px      :     0.013771
      py      :     0.032940
  9 O s       :     3.791179  s :     3.791179
      pz      :     1.521884  p :     4.891354
      px      :     1.592018
      py      :     1.777452
      dz2     :     0.017448  d :     0.052130
      dxz     :     0.006693
      dyz     :     0.007879
      dx2y2   :     0.008033
      dxy     :     0.012077
      f0      :     0.000630  f :     0.003988
      f+1     :     0.000756
      f-1     :     0.000531
      f+2     :     0.000415
      f-2     :     0.000424
      f+3     :     0.000425
      f-3     :     0.000806
 10 H s       :     0.585322  s :     0.585322
      pz      :     0.019463  p :     0.045016
      px      :     0.012213
      py      :     0.013340
 11 H s       :     0.553252  s :     0.553252
      pz      :     0.010199  p :     0.050773
      px      :     0.024566
      py      :     0.016008
 12 O s       :     3.803386  s :     3.803386
      pz      :     1.583914  p :     4.878093
      px      :     1.863974
      py      :     1.430205
      dz2     :     0.015493  d :     0.050847
      dxz     :     0.008046
      dyz     :     0.007917
      dx2y2   :     0.008544
      dxy     :     0.010846
      f0      :     0.000567  f :     0.004039
      f+1     :     0.000499
      f-1     :     0.000798
      f+2     :     0.000441
      f-2     :     0.000402
      f+3     :     0.000841
      f-3     :     0.000491
 13 H s       :     0.617092  s :     0.617092
      pz      :     0.010658  p :     0.044888
      px      :     0.016091
      py      :     0.018139
 14 H s       :     0.555934  s :     0.555934
      pz      :     0.025016  p :     0.050879
      px      :     0.014065
      py      :     0.011798
 15 O s       :     3.790067  s :     3.790067
      pz      :     1.510124  p :     4.889025
      px      :     1.600686
      py      :     1.778214
      dz2     :     0.017464  d :     0.052038
      dxz     :     0.006731
      dyz     :     0.007873
      dx2y2   :     0.007994
      dxy     :     0.011977
      f0      :     0.000631  f :     0.003980
      f+1     :     0.000755
      f-1     :     0.000530
      f+2     :     0.000414
      f-2     :     0.000423
      f+3     :     0.000423
      f-3     :     0.000803
 16 H s       :     0.598306  s :     0.598306
      pz      :     0.019250  p :     0.045485
      px      :     0.012541
      py      :     0.013694
 17 H s       :     0.546067  s :     0.546067
      pz      :     0.009893  p :     0.050612
      px      :     0.025010
      py      :     0.015710
 18 O s       :     3.786872  s :     3.786872
      pz      :     1.563910  p :     4.919456
      px      :     1.773956
      py      :     1.581590
      dz2     :     0.016893  d :     0.051508
      dxz     :     0.007868
      dyz     :     0.006712
      dx2y2   :     0.008000
      dxy     :     0.012036
      f0      :     0.000614  f :     0.003953
      f+1     :     0.000527
      f-1     :     0.000749
      f+2     :     0.000416
      f-2     :     0.000424
      f+3     :     0.000800
      f-3     :     0.000423
 19 H s       :     0.552616  s :     0.552616
      pz      :     0.024774  p :     0.049082
      px      :     0.012676
      py      :     0.011632
 20 H s       :     0.565850  s :     0.565850
      pz      :     0.010555  p :     0.051242
      px      :     0.016216
      py      :     0.024472
 21 O s       :     3.801280  s :     3.801280
      pz      :     1.725147  p :     4.918828
      px      :     1.766743
      py      :     1.426938
      dz2     :     0.009550  d :     0.050182
      dxz     :     0.010625
      dyz     :     0.010290
      dx2y2   :     0.007909
      dxy     :     0.011807
      f0      :     0.000459  f :     0.003997
      f+1     :     0.000539
      f-1     :     0.000699
      f+2     :     0.000431
      f-2     :     0.000720
      f+3     :     0.000692
      f-3     :     0.000457
 22 H s       :     0.601824  s :     0.601824
      pz      :     0.017712  p :     0.047187
      px      :     0.015437
      py      :     0.014038
 23 H s       :     0.537850  s :     0.537850
      pz      :     0.011227  p :     0.058054
      px      :     0.013882
      py      :     0.032944
 24 O s       :     3.789817  s :     3.789817
      pz      :     1.511253  p :     4.892448
      px      :     1.780899
      py      :     1.600296
      dz2     :     0.017395  d :     0.051964
      dxz     :     0.007887
      dyz     :     0.006712
      dx2y2   :     0.007955
      dxy     :     0.012014
      f0      :     0.000632  f :     0.003986
      f+1     :     0.000531
      f-1     :     0.000756
      f+2     :     0.000415
      f-2     :     0.000423
      f+3     :     0.000804
      f-3     :     0.000424
 25 H s       :     0.596940  s :     0.596940
      pz      :     0.019303  p :     0.045264
      px      :     0.013551
      py      :     0.012410
 26 H s       :     0.549833  s :     0.549833
      pz      :     0.009929  p :     0.050658
      px      :     0.015747
      py      :     0.024982


                     *******************************
                     * LOEWDIN POPULATION ANALYSIS *
                     *******************************

----------------------
LOEWDIN ATOMIC CHARGES
----------------------
   0 O :   -0.348294
   1 H :    0.153615
   2 H :    0.152692
   3 O :   -0.347451
   4 H :    0.151344
   5 H :    0.154188
   6 O :   -0.322371
   7 H :    0.159616
   8 H :    0.153616
   9 O :   -0.288959
  10 H :    0.173728
  11 H :    0.158656
  12 O :   -0.327513
  13 H :    0.164363
  14 H :    0.156884
  15 O :   -0.286608
  16 H :    0.166589
  17 H :    0.162301
  18 O :   -0.299257
  19 H :    0.159798
  20 H :    0.153085
  21 O :   -0.346293
  22 H :    0.155325
  23 H :    0.152883
  24 O :   -0.291357
  25 H :    0.168595
  26 H :    0.160823

-------------------------------
LOEWDIN REDUCED ORBITAL CHARGES
-------------------------------
  0 O s       :     3.456800  s :     3.456800
      pz      :     1.699764  p :     4.829531
      px      :     1.395401
      py      :     1.734366
      dz2     :     0.009894  d :     0.057224
      dxz     :     0.012612
      dyz     :     0.011085
      dx2y2   :     0.009394
      dxy     :     0.014239
      f0      :     0.000453  f :     0.004738
      f+1     :     0.000850
      f-1     :     0.000646
      f+2     :     0.000410
      f-2     :     0.001029
      f+3     :     0.000473
      f-3     :     0.000877
  1 H s       :     0.678284  s :     0.678284
      pz      :     0.067044  p :     0.168101
      px      :     0.047023
      py      :     0.054035
  2 H s       :     0.647439  s :     0.647439
      pz      :     0.034065  p :     0.199868
      px      :     0.117329
      py      :     0.048474
[...]
                     *******************************

----------------------
LOEWDIN ATOMIC CHARGES
----------------------
   0 O :   -0.345025
   1 H :    0.155550
   2 H :    0.144792
   3 O :   -0.343634
   4 H :    0.153327
   5 H :    0.145993
   6 O :   -0.315025
   7 H :    0.161437
   8 H :    0.145553
   9 O :   -0.282411
  10 H :    0.175290
  11 H :    0.153451
  12 O :   -0.325378
  13 H :    0.165243
  14 H :    0.152333
  15 O :   -0.279692
  16 H :    0.168327
  17 H :    0.156528
  18 O :   -0.291119
  19 H :    0.156386
  20 H :    0.148053
  21 O :   -0.342348
  22 H :    0.157278
  23 H :    0.145103
  24 O :   -0.285221
  25 H :    0.170419
  26 H :    0.154788

-------------------------------
LOEWDIN REDUCED ORBITAL CHARGES
-------------------------------
  0 O s       :     3.458126  s :     3.458126
      pz      :     1.699402  p :     4.825496
      px      :     1.399483
      py      :     1.726612
      dz2     :     0.009871  d :     0.056626
      dxz     :     0.012261
      dyz     :     0.011013
      dx2y2   :     0.009434
      dxy     :     0.014046
      f0      :     0.000455  f :     0.004776
      f+1     :     0.000862
      f-1     :     0.000647
      f+2     :     0.000410
      f-2     :     0.001031
      f+3     :     0.000478
      f-3     :     0.000893
  1 H s       :     0.676335  s :     0.676335
      pz      :     0.067024  p :     0.168115
      px      :     0.046681
      py      :     0.054409
  2 H s       :     0.655090  s :     0.655090
      pz      :     0.034663  p :     0.200118
      px      :     0.116561
      py      :     0.048894
  3 O s       :     3.458171  s :     3.458171
      pz      :     1.698698  p :     4.824077
      px      :     1.402046
      py      :     1.723333
      dz2     :     0.009900  d :     0.056619
      dxz     :     0.012461
      dyz     :     0.011053
      dx2y2   :     0.009398
      dxy     :     0.013807
      f0      :     0.000456  f :     0.004768
      f+1     :     0.000860
      f-1     :     0.000645
      f+2     :     0.000410
      f-2     :     0.001035
      f+3     :     0.000478
      f-3     :     0.000883
  4 H s       :     0.678535  s :     0.678535
      pz      :     0.067200  p :     0.168138
      px      :     0.046774
      py      :     0.054164
  5 H s       :     0.653044  s :     0.653044
      pz      :     0.034572  p :     0.200962
      px      :     0.117747
      py      :     0.048643
  6 O s       :     3.452512  s :     3.452512
      pz      :     1.667157  p :     4.800743
      px      :     1.730839
      py      :     1.402746
      dz2     :     0.010575  d :     0.056996
      dxz     :     0.010954
      dyz     :     0.012001
      dx2y2   :     0.009430
      dxy     :     0.014037
      f0      :     0.000474  f :     0.004774
      f+1     :     0.000645
      f-1     :     0.000854
      f+2     :     0.000412
      f-2     :     0.001017
      f+3     :     0.000893
      f-3     :     0.000479
  7 H s       :     0.670115  s :     0.670115
      pz      :     0.067310  p :     0.168448
      px      :     0.054302
      py      :     0.046836
  8 H s       :     0.653029  s :     0.653029
      pz      :     0.034624  p :     0.201418
      px      :     0.048938
      py      :     0.117857
  9 O s       :     3.448612  s :     3.448612
      pz      :     1.513045  p :     4.770229
      px      :     1.549553
      py      :     1.707632
      dz2     :     0.021139  d :     0.058675
      dxz     :     0.007275
      dyz     :     0.007365
      dx2y2   :     0.009111
      dxy     :     0.013786
      f0      :     0.000879  f :     0.004895
      f+1     :     0.000998
      f-1     :     0.000730
      f+2     :     0.000391
      f-2     :     0.000426
      f+3     :     0.000410
      f-3     :     0.001061
 10 H s       :     0.662421  s :     0.662421
      pz      :     0.081725  p :     0.162289
      px      :     0.037628
      py      :     0.042936
 11 H s       :     0.668071  s :     0.668071
      pz      :     0.030698  p :     0.178478
      px      :     0.088418
      py      :     0.059362
 12 O s       :     3.460584  s :     3.460584
      pz      :     1.544665  p :     4.801741
      px      :     1.820187
      py      :     1.436889
      dz2     :     0.019648  d :     0.058208
      dxz     :     0.007207
      dyz     :     0.008947
      dx2y2   :     0.009885
      dxy     :     0.012521
      f0      :     0.000773  f :     0.004844
      f+1     :     0.000583
      f-1     :     0.001147
      f+2     :     0.000416
      f-2     :     0.000411
      f+3     :     0.001063
      f-3     :     0.000451
 13 H s       :     0.677401  s :     0.677401
      pz      :     0.032151  p :     0.157356
      px      :     0.050983
      py      :     0.074222
 14 H s       :     0.672116  s :     0.672116
      pz      :     0.095243  p :     0.175551
      px      :     0.044262
      py      :     0.036046
 15 O s       :     3.448436  s :     3.448436
      pz      :     1.506512  p :     4.767670
      px      :     1.554381
      py      :     1.706778
      dz2     :     0.021410  d :     0.058698
      dxz     :     0.007381
      dyz     :     0.007383
      dx2y2   :     0.009029
      dxy     :     0.013496
      f0      :     0.000894  f :     0.004888
      f+1     :     0.000998
      f-1     :     0.000727
      f+2     :     0.000390
      f-2     :     0.000427
      f+3     :     0.000410
      f-3     :     0.001041
 16 H s       :     0.669068  s :     0.669068
      pz      :     0.081124  p :     0.162605
      px      :     0.038052
      py      :     0.043428
 17 H s       :     0.663714  s :     0.663714
      pz      :     0.030171  p :     0.179757
      px      :     0.090326
      py      :     0.059260
 18 O s       :     3.442369  s :     3.442369
      pz      :     1.535957  p :     4.786357
      px      :     1.704550
      py      :     1.545850
      dz2     :     0.020082  d :     0.057564
      dxz     :     0.007308
      dyz     :     0.007184
      dx2y2   :     0.009116
      dxy     :     0.013874
      f0      :     0.000841  f :     0.004828
      f+1     :     0.000723
      f-1     :     0.000972
      f+2     :     0.000391
      f-2     :     0.000426
      f+3     :     0.001066
      f-3     :     0.000409
 19 H s       :     0.668258  s :     0.668258
      pz      :     0.094475  p :     0.175356
      px      :     0.042757
      py      :     0.038124
 20 H s       :     0.672283  s :     0.672283
      pz      :     0.032206  p :     0.179665
      px      :     0.059304
      py      :     0.088155
 21 O s       :     3.457822  s :     3.457822
      pz      :     1.700441  p :     4.823215
      px      :     1.723235
      py      :     1.399539
      dz2     :     0.009918  d :     0.056544
      dxz     :     0.010985
      dyz     :     0.012297
      dx2y2   :     0.009475
      dxy     :     0.013869
      f0      :     0.000456  f :     0.004766
      f+1     :     0.000644
      f-1     :     0.000861
      f+2     :     0.000410
      f-2     :     0.001028
      f+3     :     0.000889
      f-3     :     0.000479
 22 H s       :     0.674777  s :     0.674777
      pz      :     0.067180  p :     0.167946
      px      :     0.054023
      py      :     0.046743
 23 H s       :     0.654831  s :     0.654831
      pz      :     0.034820  p :     0.200066
      px      :     0.048774
      py      :     0.116472
 24 O s       :     3.449291  s :     3.449291
      pz      :     1.508270  p :     4.772442
      px      :     1.709311
      py      :     1.554861
      dz2     :     0.021266  d :     0.058594
      dxz     :     0.007396
      dyz     :     0.007381
      dx2y2   :     0.009001
      dxy     :     0.013550
      f0      :     0.000890  f :     0.004894
      f+1     :     0.000730
      f-1     :     0.001000
      f+2     :     0.000391
      f-2     :     0.000427
      f+3     :     0.001045
      f-3     :     0.000410
 25 H s       :     0.667271  s :     0.667271
      pz      :     0.081107  p :     0.162310
      px      :     0.043292
      py      :     0.037910
 26 H s       :     0.665242  s :     0.665242
      pz      :     0.030230  p :     0.179970
      px      :     0.059446
      py      :     0.090294


                      *****************************
                      * MAYER POPULATION ANALYSIS *
                      *****************************

  NA   - Mulliken gross atomic population
  ZA   - Total nuclear charge
  QA   - Mulliken gross atomic charge
  VA   - Mayer's total valence
  BVA  - Mayer's bonded valence
  FA   - Mayer's free valence

  ATOM       NA         ZA         QA         VA         BVA        FA
  0 O      8.7477     8.0000    -0.7477     2.0265     1.6374     0.3891
  1 H      0.6588     1.0000     0.3412     0.9042     0.8573     0.0469
  2 H      0.6210     1.0000     0.3790     0.9095     0.8651     0.0445
  3 O      8.7473     8.0000    -0.7473     2.0279     1.6385     0.3894
  4 H      0.6634     1.0000     0.3366     0.9072     0.8599     0.0473
  5 H      0.6152     1.0000     0.3848     0.9062     0.8623     0.0440
  6 O      8.7582     8.0000    -0.7582     2.0344     1.6439     0.3906
  7 H      0.6447     1.0000     0.3553     0.8950     0.8492     0.0458
  8 H      0.6176     1.0000     0.3824     0.9067     0.8621     0.0446
  9 O      8.7104     8.0000    -0.7104     2.0893     1.7064     0.3829
 10 H      0.6364     1.0000     0.3636     0.8865     0.8409     0.0456
 11 H      0.6220     1.0000     0.3780     0.9069     0.8636     0.0433
 12 O      8.7131     8.0000    -0.7131     2.0807     1.6937     0.3870
 13 H      0.6704     1.0000     0.3296     0.9196     0.8699     0.0497
 14 H      0.6238     1.0000     0.3762     0.9027     0.8596     0.0431
 15 O      8.7055     8.0000    -0.7055     2.0839     1.7007     0.3832
 16 H      0.6491     1.0000     0.3509     0.8956     0.8486     0.0469
 17 H      0.6165     1.0000     0.3835     0.9090     0.8665     0.0426
 18 O      8.7280     8.0000    -0.7280     2.0748     1.6897     0.3851
 19 H      0.6150     1.0000     0.3850     0.8869     0.8438     0.0431
 20 H      0.6359     1.0000     0.3641     0.9225     0.8780     0.0445
 21 O      8.7466     8.0000    -0.7466     2.0323     1.6434     0.3889
 22 H      0.6554     1.0000     0.3446     0.9016     0.8550     0.0465
 23 H      0.6197     1.0000     0.3803     0.9082     0.8638     0.0444
 24 O      8.7099     8.0000    -0.7099     2.0767     1.6938     0.3829
 25 H      0.6476     1.0000     0.3524     0.8923     0.8456     0.0467
 26 H      0.6209     1.0000     0.3791     0.9148     0.8719     0.0429

  Mayer bond orders larger than 0.100000
B(  0-O ,  1-H ) :   0.8486 B(  0-O ,  2-H ) :   0.7482 B(  2-H , 24-O ) :   0.1108 
B(  3-O ,  4-H ) :   0.8507 B(  3-O ,  5-H ) :   0.7385 B(  5-H , 18-O ) :   0.1183 
B(  6-O ,  7-H ) :   0.8380 B(  6-O ,  8-H ) :   0.7333 B(  8-H , 15-O ) :   0.1138 
B(  9-O , 10-H ) :   0.8328 B(  9-O , 11-H ) :   0.7921 B(  9-O , 23-H ) :   0.1097 
B( 12-O , 13-H ) :   0.8466 B( 12-O , 14-H ) :   0.8034 B( 15-O , 16-H ) :   0.8413 
B( 15-O , 17-H ) :   0.7748 B( 18-O , 19-H ) :   0.8030 B( 18-O , 20-H ) :   0.7974 
B( 21-O , 22-H ) :   0.8464 B( 21-O , 23-H ) :   0.7478 B( 24-O , 25-H ) :   0.8408 
B( 24-O , 26-H ) :   0.7775 


----------------------------------
MP2 DERIVATIVE INTEGRAL GENERATION
----------------------------------


Input Wavefunction Amplitudes       ... 12h2o.su.etal.mol0,1,2,3,5,8,9,10,11-orca.engrad-mp2.def2tzvp.frozencore.mp2tsaa.tmp
Input Correlated Electron Density   ... 12h2o.su.etal.mol0,1,2,3,5,8,9,10,11-orca.engrad-mp2.def2tzvp.frozencore.pmp2re
Input Energy Weighted Density       ... 12h2o.su.etal.mol0,1,2,3,5,8,9,10,11-orca.engrad-mp2.def2tzvp.frozencore.wmp2.tmp
Input SCF Electron Density          ... 12h2o.su.etal.mol0,1,2,3,5,8,9,10,11-orca.engrad-mp2.def2tzvp.frozencore.scfp

One-Electron Terms    ...
                        ... One-Electron Terms done
Prescreening matrices              ... done

Batch handling in the gradient evaluation:
Memory available                      ... 8000.0 MB
Memory per occupied orbital in Q2     ...   41.1 MB
Memory per occupied orbital in Q3     ...    0.1 MB
Total memory requirement per |i>      ...   41.3 MB
Max. Number of orbitals possible      ...    193
Number of orbitals treated per batch  ...     36
Number of batches to be done          ...      1
Batch   0: i=    9 ...    44

---------------------------------------
MP2 TOTAL ENERGY:     -686.926905268 Eh
---------------------------------------

The final MP2 gradient
  0:   0.00593254   0.00146474   0.00074502
  1:   0.00053431  -0.00041286  -0.00006143
  2:  -0.00876666   0.00156487  -0.00108893
  3:  -0.00425056  -0.00524985  -0.00189227
  4:  -0.00086429   0.00051239  -0.00001770
  5:   0.00582545   0.00057863   0.00093766
  6:   0.00081347  -0.00356927   0.00010195
  7:  -0.00087230   0.00047412   0.00137727
  8:   0.00058339   0.00510952   0.00248968
  9:   0.00175909   0.00170363  -0.00851876
 10:  -0.00097653   0.00075968   0.00657077
 11:  -0.00165407   0.00272351  -0.00079633
 12:  -0.00976918  -0.01677512   0.00032511
 13:   0.00806311   0.01734128  -0.00211716
 14:   0.00212211  -0.00185612  -0.00010460
 15:  -0.00390357   0.00229511  -0.01072398
 16:   0.00011284  -0.00245785   0.00853566
 17:   0.00661350  -0.00468407  -0.00034333
 18:  -0.00158044   0.00047876   0.00032003
 19:   0.00128909   0.00004787   0.00014746
 20:  -0.00191254  -0.00116020   0.00018673
 21:  -0.00468247   0.00738878   0.00124180
 22:   0.00059544   0.00034143   0.00003263
 23:  -0.00035975  -0.00941065   0.00032694
 24:   0.00073777  -0.00515215   0.00970819
 25:   0.00078828   0.00124025  -0.00801752
 26:   0.00382195   0.00670357   0.00063513

-----------------------------------
NORM OF THE MP2 GRADIENT:  0.042979
-----------------------------------

-------------------------   --------------------
FINAL SINGLE POINT ENERGY      -686.926905267884
-------------------------   --------------------


                            ***************************************
                            *     ORCA property calculations      *
                            ***************************************

                                    ---------------------
                                    Active property flags
                                    ---------------------
   (+) Dipole Moment


------------------------------------------------------------------------------
                       ORCA ELECTRIC PROPERTIES CALCULATION
------------------------------------------------------------------------------

Dipole Moment Calculation                       ... on
Quadrupole Moment Calculation                   ... off
Polarizability Calculation                      ... off
GBWName                                         ... 12h2o.su.etal.mol0,1,2,3,5,8,9,10,11-orca.engrad-mp2.def2tzvp.frozencore.gbw
Electron density file                           ... 12h2o.su.etal.mol0,1,2,3,5,8,9,10,11-orca.engrad-mp2.def2tzvp.frozencore.scfp
The origin for moment calculation is the CENTER OF MASS  = ( 0.192340, -0.358480  0.000143)

-------------
DIPOLE MOMENT
-------------
                                X             Y             Z
Electronic contribution:     -0.10172      -0.13181      -0.27236
Nuclear contribution   :      0.45394       0.45439      -0.77428
                        -----------------------------------------
Total Dipole Moment    :      0.35223       0.32259      -1.04664
                        -----------------------------------------
Magnitude (a.u.)       :      1.15047
Magnitude (Debye)      :      2.92427



--------------------
Rotational spectrum 
--------------------
 
Rotational constants in cm-1:     0.027070     0.011693     0.011225 
Rotational constants in MHz :   811.538930   350.535664   336.518577 

 Dipole components along the rotational axes: 
x,y,z [a.u.] :    -1.046575     0.121796    -0.461991 
x,y,z [Debye]:    -2.660181     0.309582    -1.174287 

 

                         *** MP2 UNRELAXED DENSITY ***

------------------------------------------------------------------------------
                       ORCA ELECTRIC PROPERTIES CALCULATION
------------------------------------------------------------------------------

Dipole Moment Calculation                       ... on
Quadrupole Moment Calculation                   ... off
Polarizability Calculation                      ... off
GBWName                                         ... 12h2o.su.etal.mol0,1,2,3,5,8,9,10,11-orca.engrad-mp2.def2tzvp.frozencore.gbw
Electron density file                           ... 12h2o.su.etal.mol0,1,2,3,5,8,9,10,11-orca.engrad-mp2.def2tzvp.frozencore.pmp2ur
The origin for moment calculation is the CENTER OF MASS  = ( 0.192340, -0.358480  0.000143)

-------------
DIPOLE MOMENT
-------------
                                X             Y             Z
Electronic contribution:     -0.10788      -0.13708      -0.26880
Nuclear contribution   :      0.45394       0.45439      -0.77428
                        -----------------------------------------
Total Dipole Moment    :      0.34606       0.31732      -1.04308
                        -----------------------------------------
Magnitude (a.u.)       :      1.14388
Magnitude (Debye)      :      2.90751



--------------------
Rotational spectrum 
--------------------
 
Rotational constants in cm-1:     0.027070     0.011693     0.011225 
Rotational constants in MHz :   811.538930   350.535664   336.518577 

 Dipole components along the rotational axes: 
x,y,z [a.u.] :    -1.043010     0.120002    -0.454079 
x,y,z [Debye]:    -2.651121     0.305021    -1.154178 

 

                           *** MP2 RELAXED DENSITY ***

------------------------------------------------------------------------------
                       ORCA ELECTRIC PROPERTIES CALCULATION
------------------------------------------------------------------------------

Dipole Moment Calculation                       ... on
Quadrupole Moment Calculation                   ... off
Polarizability Calculation                      ... off
GBWName                                         ... 12h2o.su.etal.mol0,1,2,3,5,8,9,10,11-orca.engrad-mp2.def2tzvp.frozencore.gbw
Electron density file                           ... 12h2o.su.etal.mol0,1,2,3,5,8,9,10,11-orca.engrad-mp2.def2tzvp.frozencore.pmp2re
The origin for moment calculation is the CENTER OF MASS  = ( 0.192340, -0.358480  0.000143)

-------------
DIPOLE MOMENT
-------------
                                X             Y             Z
Electronic contribution:     -0.12140      -0.13204      -0.27481
Nuclear contribution   :      0.45394       0.45439      -0.77428
                        -----------------------------------------
Total Dipole Moment    :      0.33255       0.32235      -1.04909
                        -----------------------------------------
Magnitude (a.u.)       :      1.14677
Magnitude (Debye)      :      2.91487



--------------------
Rotational spectrum 
--------------------
 
Rotational constants in cm-1:     0.027070     0.011693     0.011225 
Rotational constants in MHz :   811.538930   350.535664   336.518577 

 Dipole components along the rotational axes: 
x,y,z [a.u.] :    -1.049020     0.130756    -0.444469 
x,y,z [Debye]:    -2.666396     0.332355    -1.129750 

 

Timings for individual modules:

Sum of individual times         ...      242.461 sec (=   4.041 min)
GTO integral calculation        ...        1.916 sec (=   0.032 min)   0.8 %
SCF iterations                  ...       32.894 sec (=   0.548 min)  13.6 %
MP2 module                      ...      207.651 sec (=   3.461 min)  85.6 %
                             ****ORCA TERMINATED NORMALLY****
TOTAL RUN TIME: 0 days 0 hours 4 minutes 4 seconds 164 msec
