
                                 *****************
                                 * O   R   C   A *
                                 *****************

           --- An Ab Initio, DFT and Semiempirical electronic structure package ---

                  #######################################################
                  #                        -***-                        #
                  #          Department of theory and spectroscopy      #
                  #               Directorship: Frank Neese             #
                  #        Max Planck Institute fuer Kohlenforschung    #
                  #                Kaiser Wilhelm Platz 1               #
                  #                 D-45470 Muelheim/Ruhr               #
                  #                      Germany                        #
                  #                                                     #
                  #                  All rights reserved                #
                  #                        -***-                        #
                  #######################################################


                         Program Version 4.2.0 -  RELEASE  -


 With contributions from (in alphabetic order):
   Daniel Aravena         : Magnetic Suceptibility
   Michael Atanasov       : Ab Initio Ligand Field Theory (pilot matlab implementation)
   Alexander A. Auer      : GIAO ZORA, VPT2
   Ute Becker             : Parallelization
   Giovanni Bistoni       : ED, misc. LED, open-shell LED, HFLED
   Martin Brehm           : Molecular dynamics
   Dmytro Bykov           : SCF Hessian
   Vijay G. Chilkuri      : MRCI spin determinant printing, contributions to CSF-ICE
   Dipayan Datta          : RHF DLPNO-CCSD density
   Achintya Kumar Dutta   : EOM-CC, STEOM-CC
   Dmitry Ganyushin       : Spin-Orbit,Spin-Spin,Magnetic field MRCI
   Miquel Garcia          : C-PCM Hessian, Gaussian charge scheme
   Yang Guo               : DLPNO-NEVPT2, CIM, IAO-localization
   Andreas Hansen         : Spin unrestricted coupled pair/coupled cluster methods
   Benjamin Helmich-Paris : CASSCF linear response (MC-RPA)
   Lee Huntington         : MR-EOM, pCC
   Robert Izsak           : Overlap fitted RIJCOSX, COSX-SCS-MP3, EOM
   Christian Kollmar      : KDIIS, OOCD, Brueckner-CCSD(T), CCSD density
   Simone Kossmann        : Meta GGA functionals, TD-DFT gradient, OOMP2, MP2 Hessian
   Martin Krupicka        : AUTO-CI
   Lucas Lang             : DCDCAS
   Dagmar Lenk            : GEPOL surface, SMD
   Dimitrios Liakos       : Extrapolation schemes; Compound Job, initial MDCI parallelization
   Dimitrios Manganas     : Further ROCIS development; embedding schemes
   Dimitrios Pantazis     : SARC Basis sets
   Taras Petrenko         : DFT Hessian,TD-DFT gradient, ASA, ECA, R-Raman, ABS, FL, XAS/XES, NRVS
   Peter Pinski           : DLPNO-MP2, DLPNO-MP2 Gradient
   Christoph Reimann      : Effective Core Potentials
   Marius Retegan         : Local ZFS, SOC
   Christoph Riplinger    : Optimizer, TS searches, QM/MM, DLPNO-CCSD(T), (RO)-DLPNO pert. Triples
   Tobias Risthaus        : Range-separated hybrids, TD-DFT gradient, RPA, STAB
   Michael Roemelt        : Original ROCIS implementation
   Masaaki Saitow         : Open-shell DLPNO-CCSD energy and density
   Barbara Sandhoefer     : DKH picture change effects
   Avijit Sen             : IP-ROCIS
   Kantharuban Sivalingam : CASSCF convergence, NEVPT2, FIC-MRCI
   Bernardo de Souza      : ESD, SOC TD-DFT
   Georgi Stoychev        : AutoAux, RI-MP2 NMR
   Willem Van den Heuvel  : Paramagnetic NMR
   Boris Wezisla          : Elementary symmetry handling
   Frank Wennmohs         : Technical directorship


 We gratefully acknowledge several colleagues who have allowed us to
 interface, adapt or use parts of their codes:
   Stefan Grimme, W. Hujo, H. Kruse,             : VdW corrections, initial TS optimization,
                  C. Bannwarth                     DFT functionals, gCP, sTDA/sTD-DF
   Ed Valeev, F. Pavosevic, A. Kumar             : LibInt (2-el integral package), F12 methods
   Garnet Chan, S. Sharma, J. Yang, R. Olivares  : DMRG
   Ulf Ekstrom                                   : XCFun DFT Library
   Mihaly Kallay                                 : mrcc  (arbitrary order and MRCC methods)
   Andreas Klamt, Michael Diedenhofen            : otool_cosmo (COSMO solvation model)
   Jiri Pittner, Ondrej Demel                    : Mk-CCSD
   Frank Weinhold                                : gennbo (NPA and NBO analysis)
   Christopher J. Cramer and Donald G. Truhlar   : smd solvation model
   Lars Goerigk                                  : TD-DFT with DH, B97 family of functionals
   V. Asgeirsson, H. Jonsson                     : NEB implementation
   FAccTs GmbH                                   : IRC, NEB, NEB-TS, Multilevel, MM, QM/MM, CI optimization
   S Lehtola, MJT Oliveira, MAL Marques          : LibXC Library


 Your calculation uses the libint2 library for the computation of 2-el integrals
 For citations please refer to: http://libint.valeyev.net

 Your ORCA version has been built with support for libXC version: 4.2.3
 For citations please refer to: https://tddft.org/programs/libxc/

 This ORCA versions uses:
   CBLAS   interface :  Fast vector & matrix operations
   LAPACKE interface :  Fast linear algebra routines
   SCALAPACK package :  Parallel linear algebra routines


----- Orbital basis set information -----
Your calculation utilizes the basis: def2-TZVP
   F. Weigend and R. Ahlrichs, Phys. Chem. Chem. Phys. 7, 3297 (2005).

================================================================================
                                        WARNINGS
                       Please study these warnings very carefully!
================================================================================


WARNING: The frozen-core approximation for MP2-gradient calculations is turned on by default.

INFO   : the flag for use of LIBINT has been found!

================================================================================
                                       INPUT FILE
================================================================================
NAME = 12h2o.su.etal.mol1,3,4,7,8,11-orca.engrad-mp2.def2tzvp.frozencore.inp
|  1> # 12h2o.su.etal.mol1,3,4,7,8,11
|  2> ! MP2 def2-TZVP EnGrad TightSCF
|  3> 
|  4> %pal
|  5>     nprocs 6
|  6> end
|  7> 
|  8> %maxcore 8000
|  9> 
| 10> %scf
| 11>     ConvForced true
| 12> end
| 13> 
| 14> *xyz 0 1
| 15> O  -1.794470000  -0.923410000   2.768350000
| 16> H  -2.338250000  -1.359750000   3.430940000
| 17> H  -0.879480000  -1.303000000   2.865760000
| 18> O  -1.752130000  -0.741530000  -2.896280000
| 19> H  -2.036450000  -0.920500000  -1.984040000
| 20> H  -0.921210000  -1.242140000  -2.984230000
| 21> O  -0.885520000   1.737840000   0.052730000
| 22> H  -1.032320000   2.090180000  -0.841890000
| 23> H  -1.284090000   0.839590000   0.017130000
| 24> O  -1.737840000  -0.885520000  -0.052730000
| 25> H  -2.090180000  -1.032320000   0.841890000
| 26> H  -0.839590000  -1.284090000  -0.017130000
| 27> O   1.752130000   0.741530000  -2.896280000
| 28> H   2.036450000   0.920500000  -1.984040000
| 29> H   0.921210000   1.242140000  -2.984230000
| 30> O  -0.741530000   1.752130000   2.896280000
| 31> H  -0.920500000   2.036450000   1.984040000
| 32> H  -1.242140000   0.921210000   2.984230000
| 33> *
| 34> 
| 35>                          ****END OF INPUT****
================================================================================

                     *******************************
                     * Energy+Gradient Calculation *
                     *******************************

---------------------------------
CARTESIAN COORDINATES (ANGSTROEM)
---------------------------------
  O     -1.794470   -0.923410    2.768350
  H     -2.338250   -1.359750    3.430940
  H     -0.879480   -1.303000    2.865760
  O     -1.752130   -0.741530   -2.896280
  H     -2.036450   -0.920500   -1.984040
  H     -0.921210   -1.242140   -2.984230
  O     -0.885520    1.737840    0.052730
  H     -1.032320    2.090180   -0.841890
  H     -1.284090    0.839590    0.017130
  O     -1.737840   -0.885520   -0.052730
  H     -2.090180   -1.032320    0.841890
  H     -0.839590   -1.284090   -0.017130
  O      1.752130    0.741530   -2.896280
  H      2.036450    0.920500   -1.984040
  H      0.921210    1.242140   -2.984230
  O     -0.741530    1.752130    2.896280
  H     -0.920500    2.036450    1.984040
  H     -1.242140    0.921210    2.984230

----------------------------
CARTESIAN COORDINATES (A.U.)
----------------------------
  NO LB      ZA    FRAG     MASS         X           Y           Z
   0 O     8.0000    0    15.999   -3.391057   -1.744992    5.231423
   1 H     1.0000    0     1.008   -4.418652   -2.569555    6.483537
   2 H     1.0000    0     1.008   -1.661976   -2.462313    5.415502
   3 O     8.0000    0    15.999   -3.311046   -1.401289   -5.473176
   4 H     1.0000    0     1.008   -3.848333   -1.739493   -3.749292
   5 H     1.0000    0     1.008   -1.740835   -2.347304   -5.639377
   6 O     8.0000    0    15.999   -1.673390    3.284042    0.099645
   7 H     1.0000    0     1.008   -1.950802    3.949868   -1.590942
   8 H     1.0000    0     1.008   -2.426578    1.586595    0.032371
   9 O     8.0000    0    15.999   -3.284042   -1.673390   -0.099645
  10 H     1.0000    0     1.008   -3.949868   -1.950802    1.590942
  11 H     1.0000    0     1.008   -1.586595   -2.426578   -0.032371
  12 O     8.0000    0    15.999    3.311046    1.401289   -5.473176
  13 H     1.0000    0     1.008    3.848333    1.739493   -3.749292
  14 H     1.0000    0     1.008    1.740835    2.347304   -5.639377
  15 O     8.0000    0    15.999   -1.401289    3.311046    5.473176
  16 H     1.0000    0     1.008   -1.739493    3.848333    3.749292
  17 H     1.0000    0     1.008   -2.347304    1.740835    5.639377

--------------------------------
INTERNAL COORDINATES (ANGSTROEM)
--------------------------------
 O      0   0   0     0.000000000000     0.00000000     0.00000000
 H      1   0   0     0.961828878803     0.00000000     0.00000000
 H      1   2   0     0.995381322057   106.21731035     0.00000000
 O      1   2   3     5.667707300743   135.01509642   116.29625730
 H      4   1   2     0.972136791249    18.92045113     9.26599691
 H      4   1   2     0.974050112161    94.59568686   248.81379742
 O      5   4   1     3.541164138161   107.84672602    33.14664954
 H      7   5   4     0.972645187106    72.17296994    29.09453504
 H      7   5   4     0.983350632989    33.04029707   190.88793319
 O      9   7   5     1.785153773264   170.81379649    88.00403199
 H     10   9   7     0.972645187106   101.65007623   109.44492584
 H     10   9   7     0.983350632989    99.09581498     3.33484705
 O      6   4   1     3.330079372477   112.10393238   271.95050236
 H     13   6   4     0.972136791249   111.66865871    85.41731375
 H     13   6   4     0.974050112161    67.60081190   348.80737033
 O      7   5   4     2.847229166523   126.48630953   195.00328214
 H     16   7   5     0.972136791249    19.08819947   226.21746260
 H     16   7   5     0.974050112161    93.43428486   350.31374249

---------------------------
INTERNAL COORDINATES (A.U.)
---------------------------
 O      0   0   0     0.000000000000     0.00000000     0.00000000
 H      1   0   0     1.817593168635     0.00000000     0.00000000
 H      1   2   0     1.880998097508   106.21731035     0.00000000
 O      1   2   3    10.710414605631   135.01509642   116.29625730
 H      4   1   2     1.837072300170    18.92045113     9.26599691
 H      4   1   2     1.840687952699    94.59568686   248.81379742
 O      5   4   1     6.691830416388   107.84672602    33.14664954
 H      7   5   4     1.838033029106    72.17296994    29.09453504
 H      7   5   4     1.858263389967    33.04029707   190.88793319
 O      9   7   5     3.373451738406   170.81379649    88.00403199
 H     10   9   7     1.838033029106   101.65007623   109.44492584
 H     10   9   7     1.858263389967    99.09581498     3.33484705
 O      6   4   1     6.292938018203   112.10393238   271.95050236
 H     13   6   4     1.837072300170   111.66865871    85.41731375
 H     13   6   4     1.840687952699    67.60081190   348.80737033
 O      7   5   4     5.380483365242   126.48630953   195.00328214
 H     16   7   5     1.837072300170    19.08819947   226.21746260
 H     16   7   5     1.840687952699    93.43428486   350.31374249

---------------------
BASIS SET INFORMATION
---------------------
There are 2 groups of distinct atoms

 Group   1 Type O   : 11s6p2d1f contracted to 5s3p2d1f pattern {62111/411/11/1}
 Group   2 Type H   : 5s1p contracted to 3s1p pattern {311/1}

Atom   0O    basis set group =>   1
Atom   1H    basis set group =>   2
Atom   2H    basis set group =>   2
Atom   3O    basis set group =>   1
Atom   4H    basis set group =>   2
Atom   5H    basis set group =>   2
Atom   6O    basis set group =>   1
Atom   7H    basis set group =>   2
Atom   8H    basis set group =>   2
Atom   9O    basis set group =>   1
Atom  10H    basis set group =>   2
Atom  11H    basis set group =>   2
Atom  12O    basis set group =>   1
Atom  13H    basis set group =>   2
Atom  14H    basis set group =>   2
Atom  15O    basis set group =>   1
Atom  16H    basis set group =>   2
Atom  17H    basis set group =>   2


           ************************************************************
           *        Program running with 6 parallel MPI-processes     *
           *              working on a common directory               *
           ************************************************************
------------------------------------------------------------------------------
                           ORCA GTO INTEGRAL CALCULATION
------------------------------------------------------------------------------

                         BASIS SET STATISTICS AND STARTUP INFO

 # of primitive gaussian shells          ...  192
 # of primitive gaussian functions       ...  372
 # of contracted shells                  ...  114
 # of contracted basis functions         ...  258
 Highest angular momentum                ...    3
 Maximum contraction depth               ...    6
 Integral package used                   ... LIBINT
 Integral threshhold            Thresh   ...  2.500e-11
 Primitive cut-off              TCut     ...  2.500e-12


------------------------------ INTEGRAL EVALUATION ----------------------------


 * One electron integrals 
 Pre-screening matrix                    ... done
 Shell pair data                         ... done (   0.001 sec)



           ************************************************************
           *        Program running with 6 parallel MPI-processes     *
           *              working on a common directory               *
           ************************************************************
-------------------------------------------------------------------------------
                                 ORCA SCF
-------------------------------------------------------------------------------

------------
SCF SETTINGS
------------
Hamiltonian:
 Ab initio Hamiltonian  Method          .... Hartree-Fock(GTOs)


General Settings:
 Integral files         IntName         .... 12h2o.su.etal.mol1,3,4,7,8,11-orca.engrad-mp2.def2tzvp.frozencore
 Hartree-Fock type      HFTyp           .... RHF
 Total Charge           Charge          ....    0
 Multiplicity           Mult            ....    1
 Number of Electrons    NEL             ....   60
 Basis Dimension        Dim             ....  258
 Nuclear Repulsion      ENuc            ....    261.4906692266 Eh

Convergence Acceleration:
 DIIS                   CNVDIIS         .... on
   Start iteration      DIISMaxIt       ....    12
   Startup error        DIISStart       ....  0.200000
   # of expansion vecs  DIISMaxEq       ....     5
   Bias factor          DIISBfac        ....   1.050
   Max. coefficient     DIISMaxC        ....  10.000
 Newton-Raphson         CNVNR           .... off
 SOSCF                  CNVSOSCF        .... on
   Start iteration      SOSCFMaxIt      ....   150
   Startup grad/error   SOSCFStart      ....  0.003300
 Level Shifting         CNVShift        .... on
   Level shift para.    LevelShift      ....    0.2500
   Turn off err/grad.   ShiftErr        ....    0.0010
 Zerner damping         CNVZerner       .... off
 Static damping         CNVDamp         .... on
   Fraction old density DampFac         ....    0.7000
   Max. Damping (<1)    DampMax         ....    0.9800
   Min. Damping (>=0)   DampMin         ....    0.0000
   Turn off err/grad.   DampErr         ....    0.1000
 Fernandez-Rico         CNVRico         .... off

SCF Procedure:
 Maximum # iterations   MaxIter         ....   125
 SCF integral mode      SCFMode         .... Direct
   Integral package                     .... LIBINT
 Reset frequency        DirectResetFreq ....    20
 Integral Threshold     Thresh          ....  2.500e-11 Eh
 Primitive CutOff       TCut            ....  2.500e-12 Eh

Convergence Tolerance:
 Convergence Check Mode ConvCheckMode   .... Total+1el-Energy
 Convergence forced     ConvForced      .... 1
 Energy Change          TolE            ....  1.000e-08 Eh
 1-El. energy change                    ....  1.000e-05 Eh
 Orbital Gradient       TolG            ....  1.000e-05
 Orbital Rotation angle TolX            ....  1.000e-05
 DIIS Error             TolErr          ....  5.000e-07


Diagonalization of the overlap matrix:
Smallest eigenvalue                        ... 4.147e-03
Time for diagonalization                   ...    0.010 sec
Threshold for overlap eigenvalues          ... 1.000e-08
Number of eigenvalues below threshold      ... 0
Time for construction of square roots      ...    0.005 sec
Total time needed                          ...    0.015 sec

-------------------
DFT GRID GENERATION
-------------------

General Integration Accuracy     IntAcc      ...  4.340
Radial Grid Type                 RadialGrid  ... Gauss-Chebyshev
Angular Grid (max. acc.)         AngularGrid ... Lebedev-110
Angular grid pruning method      GridPruning ... 3 (G Style)
Weight generation scheme         WeightScheme... Becke
Basis function cutoff            BFCut       ...    1.0000e-11
Integration weight cutoff        WCut        ...    1.0000e-14
Grids for H and He will be reduced by one unit

# of grid points (after initial pruning)     ...  19824 (   0.0 sec)
# of grid points (after weights+screening)   ...  18754 (   0.0 sec)
nearest neighbour list constructed           ...    0.0 sec
Grid point re-assignment to atoms done       ...    0.0 sec
Grid point division into batches done        ...    0.0 sec
Reduced shell lists constructed in    0.0 sec

Total number of grid points                  ...    18754
Total number of batches                      ...      302
Average number of points per batch           ...       62
Average number of grid points per atom       ...     1042
Average number of shells per batch           ...    53.04 (46.52%)
Average number of basis functions per batch  ...   106.77 (41.38%)
Average number of large shells per batch     ...    37.13 (70.01%)
Average number of large basis fcns per batch ...    73.10 (68.46%)
Maximum spatial batch extension              ...  15.53, 20.95, 15.40 au
Average spatial batch extension              ...   0.68,  0.71,  0.64 au

Time for grid setup =    0.055 sec

------------------------------
INITIAL GUESS: MODEL POTENTIAL
------------------------------
Loading Hartree-Fock densities                     ... done
Calculating cut-offs                               ... done
Setting up the integral package                    ... done
Initializing the effective Hamiltonian             ... done
Starting the Coulomb interaction                   ... done (   0.0 sec)
Reading the grid                                   ... done
Mapping shells                                     ... done
Starting the XC term evaluation                    ... done (   0.0 sec)
Transforming the Hamiltonian                       ... done (   0.0 sec)
Diagonalizing the Hamiltonian                      ... done (   0.0 sec)
Back transforming the eigenvectors                 ... done (   0.0 sec)
Now organizing SCF variables                       ... done
                      ------------------
                      INITIAL GUESS DONE (   0.2 sec)
                      ------------------
--------------
SCF ITERATIONS
--------------
ITER       Energy         Delta-E        Max-DP      RMS-DP      [F,P]     Damp
               ***  Starting incremental Fock matrix formation  ***
  0   -455.8199134842   0.000000000000 0.04387227  0.00097376  0.3413992 0.7000
  1   -456.0347923942  -0.214878909988 0.02904907  0.00067276  0.2167556 0.7000
                               ***Turning on DIIS***
  2   -456.1481586546  -0.113366260436 0.01624056  0.00037413  0.1637616 0.7000
  3   -457.1413414081  -0.993182753525 0.00769884  0.00017039  0.1218256 0.7000
  4   -456.9372898230   0.204051585135 0.01734929  0.00039626  0.0861960 0.0000
  5   -456.4084916446   0.528798178413 0.00213525  0.00006367  0.0055023 0.0000
                      *** Initiating the SOSCF procedure ***
                           *** Shutting down DIIS ***
                      *** Re-Reading the Fockian *** 
                      *** Removing any level shift *** 
ITER      Energy       Delta-E        Grad      Rot      Max-DP    RMS-DP
  6   -456.37561044   0.0328812041  0.000948  0.000948  0.001282  0.000038
               *** Restarting incremental Fock matrix formation ***
  7   -456.36676824   0.0088421955  0.000351  0.000503  0.000589  0.000017
  8   -456.36677708  -0.0000088343  0.000148  0.000426  0.000406  0.000014
  9   -456.36677914  -0.0000020598  0.000080  0.000045  0.000090  0.000003
 10   -456.36677931  -0.0000001739  0.000012  0.000006  0.000018  0.000000
                  ***Gradient check signals convergence***
              ***Rediagonalizing the Fockian in SOSCF/NRSCF***

               *****************************************************
               *                     SUCCESS                       *
               *           SCF CONVERGED AFTER  11 CYCLES          *
               *****************************************************


----------------
TOTAL SCF ENERGY
----------------

Total Energy       :         -456.36677932 Eh          -12418.37140 eV

Components:
Nuclear Repulsion  :          261.49066923 Eh            7115.52286 eV
Electronic Energy  :         -717.85744854 Eh          -19533.89426 eV
One Electron Energy:        -1150.72996789 Eh          -31312.95435 eV
Two Electron Energy:          432.87251935 Eh           11779.06009 eV

Virial components:
Potential Energy   :         -912.10781487 Eh          -24819.71545 eV
Kinetic Energy     :          455.74103555 Eh           12401.34405 eV
Virial Ratio       :            2.00137302


---------------
SCF CONVERGENCE
---------------

  Last Energy change         ...   -3.4731e-09  Tolerance :   1.0000e-08
  Last MAX-Density change    ...    6.0989e-06  Tolerance :   1.0000e-07
  Last RMS-Density change    ...    1.4520e-07  Tolerance :   5.0000e-09
  Last Orbital Gradient      ...    1.8284e-06  Tolerance :   1.0000e-05
  Last Orbital Rotation      ...    2.4160e-06  Tolerance :   1.0000e-05

             **** THE GBW FILE WAS UPDATED (12h2o.su.etal.mol1,3,4,7,8,11-orca.engrad-mp2.def2tzvp.frozencore.gbw) ****
             **** DENSITY FILE WAS UPDATED (12h2o.su.etal.mol1,3,4,7,8,11-orca.engrad-mp2.def2tzvp.frozencore.scfp) ****
             **** ENERGY FILE WAS UPDATED (12h2o.su.etal.mol1,3,4,7,8,11-orca.engrad-mp2.def2tzvp.frozencore.en.tmp) ****
             **** THE GBW FILE WAS UPDATED (12h2o.su.etal.mol1,3,4,7,8,11-orca.engrad-mp2.def2tzvp.frozencore.gbw) ****
             **** DENSITY FILE WAS UPDATED (12h2o.su.etal.mol1,3,4,7,8,11-orca.engrad-mp2.def2tzvp.frozencore.scfp) ****
----------------
ORBITAL ENERGIES
----------------

  NO   OCC          E(Eh)            E(eV) 
   0   2.0000     -20.631840      -561.4209 
   1   2.0000     -20.608985      -560.7990 
   2   2.0000     -20.562097      -559.5231 
   3   2.0000     -20.554820      -559.3251 
   4   2.0000     -20.546868      -559.1087 
   5   2.0000     -20.512421      -558.1714 
   6   2.0000      -1.413189       -38.4548 
   7   2.0000      -1.393818       -37.9277 
   8   2.0000      -1.341206       -36.4961 
   9   2.0000      -1.338207       -36.4145 
  10   2.0000      -1.328726       -36.1565 
  11   2.0000      -1.297546       -35.3080 
  12   2.0000      -0.778149       -21.1745 
  13   2.0000      -0.757954       -20.6250 
  14   2.0000      -0.713336       -19.4109 
  15   2.0000      -0.704023       -19.1574 
  16   2.0000      -0.699319       -19.0294 
  17   2.0000      -0.680326       -18.5126 
  18   2.0000      -0.656259       -17.8577 
  19   2.0000      -0.624856       -17.0032 
  20   2.0000      -0.600126       -16.3303 
  21   2.0000      -0.579263       -15.7625 
  22   2.0000      -0.576425       -15.6853 
  23   2.0000      -0.558233       -15.1903 
  24   2.0000      -0.542411       -14.7598 
  25   2.0000      -0.528277       -14.3752 
  26   2.0000      -0.507384       -13.8066 
  27   2.0000      -0.501966       -13.6592 
  28   2.0000      -0.492505       -13.4017 
  29   2.0000      -0.462023       -12.5723 
  30   0.0000       0.073219         1.9924 
  31   0.0000       0.105175         2.8620 
  32   0.0000       0.136775         3.7218 
  33   0.0000       0.160034         4.3547 
  34   0.0000       0.172226         4.6865 
  35   0.0000       0.188147         5.1197 
  36   0.0000       0.219635         5.9766 
  37   0.0000       0.225160         6.1269 
  38   0.0000       0.247886         6.7453 
  39   0.0000       0.278734         7.5847 
  40   0.0000       0.314548         8.5593 
  41   0.0000       0.330181         8.9847 
  42   0.0000       0.430059        11.7025 
  43   0.0000       0.442978        12.0541 
  44   0.0000       0.486830        13.2473 
  45   0.0000       0.510689        13.8965 
  46   0.0000       0.515892        14.0381 
  47   0.0000       0.520754        14.1704 
  48   0.0000       0.527527        14.3547 
  49   0.0000       0.551693        15.0123 
  50   0.0000       0.567666        15.4470 
  51   0.0000       0.574922        15.6444 
  52   0.0000       0.583446        15.8764 
  53   0.0000       0.594939        16.1891 
  54   0.0000       0.616820        16.7845 
  55   0.0000       0.624702        16.9990 
  56   0.0000       0.630109        17.1461 
  57   0.0000       0.640544        17.4301 
  58   0.0000       0.654404        17.8072 
  59   0.0000       0.676747        18.4152 
  60   0.0000       0.683575        18.6010 
  61   0.0000       0.689198        18.7540 
  62   0.0000       0.701717        19.0947 
  63   0.0000       0.728073        19.8119 
  64   0.0000       0.740982        20.1631 
  65   0.0000       0.767865        20.8947 
  66   0.0000       0.777127        21.1467 
  67   0.0000       0.782091        21.2818 
  68   0.0000       0.794461        21.6184 
  69   0.0000       0.797186        21.6925 
  70   0.0000       0.826184        22.4816 
  71   0.0000       0.845673        23.0119 
  72   0.0000       0.913967        24.8703 
  73   0.0000       0.932119        25.3642 
  74   0.0000       0.968628        26.3577 
  75   0.0000       0.982400        26.7325 
  76   0.0000       1.052691        28.6452 
  77   0.0000       1.089462        29.6458 
  78   0.0000       1.340376        36.4735 
  79   0.0000       1.353704        36.8361 
  80   0.0000       1.369666        37.2705 
  81   0.0000       1.396685        38.0057 
  82   0.0000       1.409389        38.3514 
  83   0.0000       1.423528        38.7362 
  84   0.0000       1.426882        38.8274 
  85   0.0000       1.444053        39.2947 
  86   0.0000       1.457691        39.6658 
  87   0.0000       1.491467        40.5849 
  88   0.0000       1.495816        40.7032 
  89   0.0000       1.511223        41.1225 
  90   0.0000       1.549246        42.1571 
  91   0.0000       1.554490        42.2998 
  92   0.0000       1.565209        42.5915 
  93   0.0000       1.588112        43.2147 
  94   0.0000       1.602828        43.6152 
  95   0.0000       1.660851        45.1940 
  96   0.0000       1.773919        48.2708 
  97   0.0000       1.792926        48.7880 
  98   0.0000       1.823533        49.6209 
  99   0.0000       1.836499        49.9737 
 100   0.0000       1.851603        50.3847 
 101   0.0000       1.869498        50.8716 
 102   0.0000       1.924464        52.3673 
 103   0.0000       1.930516        52.5320 
 104   0.0000       1.948534        53.0223 
 105   0.0000       1.961010        53.3618 
 106   0.0000       1.985669        54.0328 
 107   0.0000       2.018069        54.9144 
 108   0.0000       2.026090        55.1327 
 109   0.0000       2.033319        55.3294 
 110   0.0000       2.090900        56.8963 
 111   0.0000       2.109121        57.3921 
 112   0.0000       2.130078        57.9624 
 113   0.0000       2.184680        59.4482 
 114   0.0000       2.249480        61.2115 
 115   0.0000       2.282497        62.1099 
 116   0.0000       2.293460        62.4082 
 117   0.0000       2.310971        62.8847 
 118   0.0000       2.314911        62.9919 
 119   0.0000       2.328270        63.3554 
 120   0.0000       2.336044        63.5670 
 121   0.0000       2.342641        63.7465 
 122   0.0000       2.354668        64.0738 
 123   0.0000       2.364858        64.3511 
 124   0.0000       2.369418        64.4751 
 125   0.0000       2.383978        64.8713 
 126   0.0000       2.391122        65.0657 
 127   0.0000       2.424480        65.9735 
 128   0.0000       2.455537        66.8186 
 129   0.0000       2.487985        67.7015 
 130   0.0000       2.530626        68.8618 
 131   0.0000       2.544401        69.2367 
 132   0.0000       2.563661        69.7608 
 133   0.0000       2.582628        70.2769 
 134   0.0000       2.588194        70.4283 
 135   0.0000       2.611565        71.0643 
 136   0.0000       2.641810        71.8873 
 137   0.0000       2.650344        72.1195 
 138   0.0000       2.680040        72.9276 
 139   0.0000       2.697682        73.4076 
 140   0.0000       2.707811        73.6833 
 141   0.0000       2.722023        74.0700 
 142   0.0000       2.743029        74.6416 
 143   0.0000       2.768187        75.3262 
 144   0.0000       2.862091        77.8815 
 145   0.0000       2.906938        79.1018 
 146   0.0000       2.944010        80.1106 
 147   0.0000       2.952650        80.3457 
 148   0.0000       2.956915        80.4617 
 149   0.0000       2.963586        80.6433 
 150   0.0000       2.975963        80.9801 
 151   0.0000       2.995681        81.5166 
 152   0.0000       3.020385        82.1889 
 153   0.0000       3.023639        82.2774 
 154   0.0000       3.042844        82.8000 
 155   0.0000       3.071087        83.5685 
 156   0.0000       3.078181        83.7616 
 157   0.0000       3.112603        84.6982 
 158   0.0000       3.129146        85.1484 
 159   0.0000       3.159018        85.9613 
 160   0.0000       3.172886        86.3386 
 161   0.0000       3.195326        86.9492 
 162   0.0000       3.228624        87.8553 
 163   0.0000       3.272676        89.0541 
 164   0.0000       3.309478        90.0555 
 165   0.0000       3.330670        90.6322 
 166   0.0000       3.373576        91.7997 
 167   0.0000       3.445614        93.7599 
 168   0.0000       3.952118       107.5426 
 169   0.0000       4.025621       109.5427 
 170   0.0000       4.030641       109.6793 
 171   0.0000       4.055610       110.3588 
 172   0.0000       4.089728       111.2872 
 173   0.0000       4.118979       112.0831 
 174   0.0000       4.250057       115.6499 
 175   0.0000       4.269746       116.1857 
 176   0.0000       4.306103       117.1750 
 177   0.0000       4.329707       117.8173 
 178   0.0000       4.348266       118.3223 
 179   0.0000       4.374504       119.0363 
 180   0.0000       5.481891       149.1698 
 181   0.0000       5.497720       149.6006 
 182   0.0000       5.548182       150.9737 
 183   0.0000       5.552069       151.0795 
 184   0.0000       5.560963       151.3215 
 185   0.0000       5.575358       151.7132 
 186   0.0000       5.591371       152.1489 
 187   0.0000       5.629474       153.1858 
 188   0.0000       5.652607       153.8153 
 189   0.0000       5.661166       154.0481 
 190   0.0000       5.666252       154.1866 
 191   0.0000       5.698653       155.0682 
 192   0.0000       5.744278       156.3098 
 193   0.0000       5.771198       157.0423 
 194   0.0000       5.784188       157.3958 
 195   0.0000       5.816141       158.2652 
 196   0.0000       5.821333       158.4065 
 197   0.0000       5.831311       158.6780 
 198   0.0000       5.837463       158.8454 
 199   0.0000       5.846240       159.0843 
 200   0.0000       5.851290       159.2217 
 201   0.0000       5.852575       159.2567 
 202   0.0000       5.860810       159.4807 
 203   0.0000       5.881348       160.0396 
 204   0.0000       5.886729       160.1860 
 205   0.0000       5.895048       160.4124 
 206   0.0000       5.902599       160.6179 
 207   0.0000       5.914755       160.9487 
 208   0.0000       5.923254       161.1799 
 209   0.0000       5.949236       161.8870 
 210   0.0000       6.363131       173.1496 
 211   0.0000       6.421398       174.7351 
 212   0.0000       6.471311       176.0933 
 213   0.0000       6.488990       176.5744 
 214   0.0000       6.504827       177.0053 
 215   0.0000       6.527255       177.6156 
 216   0.0000       6.634944       180.5460 
 217   0.0000       6.659907       181.2253 
 218   0.0000       6.689640       182.0344 
 219   0.0000       6.695082       182.1825 
 220   0.0000       6.721889       182.9119 
 221   0.0000       6.759663       183.9398 
 222   0.0000       6.816383       185.4832 
 223   0.0000       6.828893       185.8236 
 224   0.0000       6.830634       185.8710 
 225   0.0000       6.837366       186.0542 
 226   0.0000       6.851236       186.4316 
 227   0.0000       6.859826       186.6654 
 228   0.0000       6.875612       187.0949 
 229   0.0000       6.886537       187.3922 
 230   0.0000       6.891257       187.5206 
 231   0.0000       6.905507       187.9084 
 232   0.0000       6.909091       188.0059 
 233   0.0000       6.918783       188.2697 
 234   0.0000       6.946856       189.0336 
 235   0.0000       6.960378       189.4015 
 236   0.0000       6.965258       189.5343 
 237   0.0000       7.001010       190.5072 
 238   0.0000       7.016876       190.9389 
 239   0.0000       7.045951       191.7301 
 240   0.0000       7.316569       199.0940 
 241   0.0000       7.353732       200.1052 
 242   0.0000       7.364207       200.3903 
 243   0.0000       7.386652       201.0010 
 244   0.0000       7.433408       202.2733 
 245   0.0000       7.437229       202.3773 
 246   0.0000       7.456023       202.8887 
 247   0.0000       7.507432       204.2876 
 248   0.0000       7.543437       205.2674 
 249   0.0000       7.562358       205.7822 
 250   0.0000       7.590566       206.5498 
 251   0.0000       7.621542       207.3927 
 252   0.0000      44.847549      1220.3638 
 253   0.0000      44.868701      1220.9394 
 254   0.0000      44.921967      1222.3889 
 255   0.0000      44.980150      1223.9721 
 256   0.0000      45.002382      1224.5771 
 257   0.0000      45.046481      1225.7771 

                    ********************************
                    * MULLIKEN POPULATION ANALYSIS *
                    ********************************

-----------------------
MULLIKEN ATOMIC CHARGES
-----------------------
   0 O :   -0.744147
   1 H :    0.380821
   2 H :    0.379928
   3 O :   -0.723783
   4 H :    0.383877
   5 H :    0.340210
   6 O :   -0.753312
   7 H :    0.348773
   8 H :    0.383702
   9 O :   -0.754152
  10 H :    0.409985
  11 H :    0.359046
  12 O :   -0.701945
  13 H :    0.349149
  14 H :    0.351714
  15 O :   -0.748452
  16 H :    0.387285
  17 H :    0.351300
Sum of atomic charges:   -0.0000000

--------------------------------
MULLIKEN REDUCED ORBITAL CHARGES
--------------------------------
  0 O s       :     3.807310  s :     3.807310
      pz      :     1.731503  p :     4.911463
      px      :     1.380431
      py      :     1.799530
      dz2     :     0.003877  d :     0.023895
      dxz     :     0.004316
      dyz     :     0.005459
      dx2y2   :     0.002562
      dxy     :     0.007681
      f0      :     0.000084  f :     0.001478
      f+1     :     0.000333
      f-1     :     0.000179
      f+2     :     0.000064
      f-2     :     0.000348
      f+3     :     0.000094
      f-3     :     0.000377
  1 H s       :     0.574335  s :     0.574335
      pz      :     0.016909  p :     0.044844
      px      :     0.013313
      py      :     0.014622
  2 H s       :     0.579512  s :     0.579512
      pz      :     0.010482  p :     0.040560
      px      :     0.017987
      py      :     0.012090
  3 O s       :     3.812548  s :     3.812548
      pz      :     1.549351  p :     4.884006
      px      :     1.521340
      py      :     1.813315
      dz2     :     0.011789  d :     0.025739
      dxz     :     0.001246
      dyz     :     0.003009
      dx2y2   :     0.002131
      dxy     :     0.007564
      f0      :     0.000251  f :     0.001490
      f+1     :     0.000375
      f-1     :     0.000166
      f+2     :     0.000055
      f-2     :     0.000055
      f+3     :     0.000069
      f-3     :     0.000518
  4 H s       :     0.567364  s :     0.567364
      pz      :     0.024119  p :     0.048759
      px      :     0.011581
      py      :     0.013060
  5 H s       :     0.614941  s :     0.614941
      pz      :     0.010921  p :     0.044849
      px      :     0.018094
      py      :     0.015835
  6 O s       :     3.809484  s :     3.809484
      pz      :     1.538532  p :     4.918803
      px      :     1.878828
      py      :     1.501443
      dz2     :     0.010541  d :     0.023571
      dxz     :     0.002397
      dyz     :     0.002625
      dx2y2   :     0.002927
      dxy     :     0.005081
      f0      :     0.000203  f :     0.001454
      f+1     :     0.000125
      f-1     :     0.000438
      f+2     :     0.000078
      f-2     :     0.000038
      f+3     :     0.000454
      f-3     :     0.000118
  7 H s       :     0.606236  s :     0.606236
      pz      :     0.018477  p :     0.044991
      px      :     0.014237
      py      :     0.012278
  8 H s       :     0.562862  s :     0.562862
      pz      :     0.009165  p :     0.053436
      px      :     0.015725
      py      :     0.028546
  9 O s       :     3.802607  s :     3.802607
      pz      :     1.614343  p :     4.926214
      px      :     1.461943
      py      :     1.849928
      dz2     :     0.010598  d :     0.023941
      dxz     :     0.002539
      dyz     :     0.002134
      dx2y2   :     0.003526
      dxy     :     0.005144
      f0      :     0.000167  f :     0.001390
      f+1     :     0.000441
      f-1     :     0.000112
      f+2     :     0.000069
      f-2     :     0.000036
      f+3     :     0.000110
      f-3     :     0.000455
 10 H s       :     0.541716  s :     0.541716
      pz      :     0.025017  p :     0.048299
      px      :     0.010899
      py      :     0.012383
 11 H s       :     0.598811  s :     0.598811
      pz      :     0.009471  p :     0.042143
      px      :     0.018564
      py      :     0.014108
 12 O s       :     3.814918  s :     3.814918
      pz      :     1.504285  p :     4.859163
      px      :     1.537759
      py      :     1.817119
      dz2     :     0.012280  d :     0.026331
      dxz     :     0.001252
      dyz     :     0.003050
      dx2y2   :     0.002132
      dxy     :     0.007616
      f0      :     0.000269  f :     0.001534
      f+1     :     0.000385
      f-1     :     0.000174
      f+2     :     0.000056
      f-2     :     0.000057
      f+3     :     0.000069
      f-3     :     0.000523
 13 H s       :     0.606119  s :     0.606119
      pz      :     0.019007  p :     0.044732
      px      :     0.012161
      py      :     0.013564
 14 H s       :     0.603871  s :     0.603871
      pz      :     0.010554  p :     0.044415
      px      :     0.018228
      py      :     0.015633
 15 O s       :     3.805435  s :     3.805435
      pz      :     1.553847  p :     4.916732
      px      :     1.816748
      py      :     1.546137
      dz2     :     0.011354  d :     0.024836
      dxz     :     0.002916
      dyz     :     0.001191
      dx2y2   :     0.002148
      dxy     :     0.007226
      f0      :     0.000250  f :     0.001449
      f+1     :     0.000162
      f-1     :     0.000370
      f+2     :     0.000056
      f-2     :     0.000055
      f+3     :     0.000489
      f-3     :     0.000067
 16 H s       :     0.564141  s :     0.564141
      pz      :     0.024199  p :     0.048573
      px      :     0.012818
      py      :     0.011556
 17 H s       :     0.597939  s :     0.597939
      pz      :     0.010696  p :     0.050761
      px      :     0.016943
      py      :     0.023122


                     *******************************
                     * LOEWDIN POPULATION ANALYSIS *
                     *******************************

----------------------
LOEWDIN ATOMIC CHARGES
----------------------
   0 O :   -0.296939
   1 H :    0.170856
   2 H :    0.192693
   3 O :   -0.340795
   4 H :    0.154613
   5 H :    0.161040
   6 O :   -0.342604
   7 H :    0.161989
   8 H :    0.151888
   9 O :   -0.293695
  10 H :    0.163826
  11 H :    0.175776
  12 O :   -0.332678
  13 H :    0.165429
  14 H :    0.166129
  15 O :   -0.356533
  16 H :    0.156793
  17 H :    0.142212

-------------------------------
LOEWDIN REDUCED ORBITAL CHARGES
-------------------------------
  0 O s       :     3.462245  s :     3.462245
      pz      :     1.686644  p :     4.801296
      px      :     1.364534
      py      :     1.750118
      dz2     :     0.005358  d :     0.031336
      dxz     :     0.006430
      dyz     :     0.005263
      dx2y2   :     0.004248
      dxy     :     0.010037
      f0      :     0.000087  f :     0.002063
      f+1     :     0.000447
      f-1     :     0.000271
      f+2     :     0.000033
      f-2     :     0.000591
      f+3     :     0.000091
      f-3     :     0.000543
  1 H s       :     0.664930  s :     0.664930
      pz      :     0.066669  p :     0.164214
      px      :     0.044654
      py      :     0.052891
  2 H s       :     0.658420  s :     0.658420
      pz      :     0.033275  p :     0.148887
      px      :     0.072033
      py      :     0.043578
  3 O s       :     3.467717  s :     3.467717
      pz      :     1.532835  p :     4.838691
      px      :     1.521009
      py      :     1.784846
      dz2     :     0.015593  d :     0.032254
      dxz     :     0.001904
      dyz     :     0.002343
      dx2y2   :     0.002380
      dxy     :     0.010034
      f0      :     0.000444  f :     0.002134
      f+1     :     0.000564
      f-1     :     0.000319
      f+2     :     0.000024
      f-2     :     0.000045
      f+3     :     0.000003
      f-3     :     0.000735
  4 H s       :     0.675252  s :     0.675252
      pz      :     0.092195  p :     0.170136
      px      :     0.035901
      py      :     0.042040
  5 H s       :     0.681476  s :     0.681476
      pz      :     0.031193  p :     0.157484
      px      :     0.071473
      py      :     0.054819
  6 O s       :     3.463235  s :     3.463235
      pz      :     1.525474  p :     4.846730
      px      :     1.839882
      py      :     1.481374
      dz2     :     0.014971  d :     0.030597
      dxz     :     0.001658
      dyz     :     0.004158
      dx2y2   :     0.003774
      dxy     :     0.006035
      f0      :     0.000401  f :     0.002043
      f+1     :     0.000189
      f-1     :     0.000741
      f+2     :     0.000047
      f-2     :     0.000045
      f+3     :     0.000555
      f-3     :     0.000066
  7 H s       :     0.679132  s :     0.679132
      pz      :     0.078942  p :     0.158879
      px      :     0.043347
      py      :     0.036590
  8 H s       :     0.663751  s :     0.663751
      pz      :     0.029227  p :     0.184361
      px      :     0.052505
      py      :     0.102629
  9 O s       :     3.457943  s :     3.457943
      pz      :     1.563938  p :     4.802325
      px      :     1.451465
      py      :     1.786922
      dz2     :     0.014463  d :     0.031404
      dxz     :     0.003529
      dyz     :     0.001295
      dx2y2   :     0.005392
      dxy     :     0.006724
      f0      :     0.000332  f :     0.002023
      f+1     :     0.000706
      f-1     :     0.000201
      f+2     :     0.000037
      f-2     :     0.000041
      f+3     :     0.000074
      f-3     :     0.000633
 10 H s       :     0.663180  s :     0.663180
      pz      :     0.094947  p :     0.172993
      px      :     0.035708
      py      :     0.042338
 11 H s       :     0.669699  s :     0.669699
      pz      :     0.030697  p :     0.154525
      px      :     0.074545
      py      :     0.049283
 12 O s       :     3.472722  s :     3.472722
      pz      :     1.509981  p :     4.824312
      px      :     1.526900
      py      :     1.787431
      dz2     :     0.016688  d :     0.033433
      dxz     :     0.002107
      dyz     :     0.002485
      dx2y2   :     0.002300
      dxy     :     0.009853
      f0      :     0.000487  f :     0.002211
      f+1     :     0.000595
      f-1     :     0.000329
      f+2     :     0.000026
      f-2     :     0.000048
      f+3     :     0.000003
      f-3     :     0.000723
 13 H s       :     0.676916  s :     0.676916
      pz      :     0.080434  p :     0.157654
      px      :     0.035305
      py      :     0.041916
 14 H s       :     0.676991  s :     0.676991
      pz      :     0.029754  p :     0.156880
      px      :     0.072204
      py      :     0.054921
 15 O s       :     3.461010  s :     3.461010
      pz      :     1.535988  p :     4.862902
      px      :     1.791126
      py      :     1.535788
      dz2     :     0.014838  d :     0.030568
      dxz     :     0.002253
      dyz     :     0.001809
      dx2y2   :     0.002260
      dxy     :     0.009409
      f0      :     0.000437  f :     0.002053
      f+1     :     0.000309
      f-1     :     0.000547
      f+2     :     0.000024
      f-2     :     0.000046
      f+3     :     0.000688
      f-3     :     0.000002
 16 H s       :     0.672218  s :     0.672218
      pz      :     0.092500  p :     0.170990
      px      :     0.041937
      py      :     0.036553
 17 H s       :     0.685838  s :     0.685838
      pz      :     0.031741  p :     0.171950
      px      :     0.057799
      py      :     0.082410


                      *****************************
                      * MAYER POPULATION ANALYSIS *
                      *****************************

  NA   - Mulliken gross atomic population
  ZA   - Total nuclear charge
  QA   - Mulliken gross atomic charge
  VA   - Mayer's total valence
  BVA  - Mayer's bonded valence
  FA   - Mayer's free valence

  ATOM       NA         ZA         QA         VA         BVA        FA
  0 O      8.7441     8.0000    -0.7441     1.7538     1.7538    -0.0000
  1 H      0.6192     1.0000     0.3808     0.8712     0.8712    -0.0000
  2 H      0.6201     1.0000     0.3799     0.8703     0.8703     0.0000
  3 O      8.7238     8.0000    -0.7238     1.7596     1.7596    -0.0000
  4 H      0.6161     1.0000     0.3839     0.8746     0.8746    -0.0000
  5 H      0.6598     1.0000     0.3402     0.9010     0.9010     0.0000
  6 O      8.7533     8.0000    -0.7533     1.7159     1.7159    -0.0000
  7 H      0.6512     1.0000     0.3488     0.8971     0.8971     0.0000
  8 H      0.6163     1.0000     0.3837     0.8876     0.8876     0.0000
  9 O      8.7542     8.0000    -0.7542     1.7347     1.7347     0.0000
 10 H      0.5900     1.0000     0.4100     0.8614     0.8614     0.0000
 11 H      0.6410     1.0000     0.3590     0.8882     0.8882     0.0000
 12 O      8.7019     8.0000    -0.7019     1.7768     1.7768    -0.0000
 13 H      0.6509     1.0000     0.3491     0.8934     0.8934    -0.0000
 14 H      0.6483     1.0000     0.3517     0.8950     0.8950    -0.0000
 15 O      8.7485     8.0000    -0.7485     1.7356     1.7356     0.0000
 16 H      0.6127     1.0000     0.3873     0.8766     0.8766    -0.0000
 17 H      0.6487     1.0000     0.3513     0.9017     0.9017    -0.0000

  Mayer bond orders larger than 0.100000
B(  0-O ,  1-H ) :   0.8622 B(  0-O ,  2-H ) :   0.8582 B(  3-O ,  4-H ) :   0.8562 
B(  3-O ,  5-H ) :   0.8917 B(  6-O ,  7-H ) :   0.8859 B(  6-O ,  8-H ) :   0.8255 
B(  9-O , 10-H ) :   0.8235 B(  9-O , 11-H ) :   0.8744 B( 12-O , 13-H ) :   0.8869 
B( 12-O , 14-H ) :   0.8832 B( 15-O , 16-H ) :   0.8515 B( 15-O , 17-H ) :   0.8814 


-------
TIMINGS
-------

Total SCF time: 0 days 0 hours 0 min 11 sec 

Total time                  ....      11.154 sec
Sum of individual times     ....      10.912 sec  ( 97.8%)

Fock matrix formation       ....      10.564 sec  ( 94.7%)
Diagonalization             ....       0.076 sec  (  0.7%)
Density matrix formation    ....       0.009 sec  (  0.1%)
Population analysis         ....       0.008 sec  (  0.1%)
Initial guess               ....       0.140 sec  (  1.3%)
Orbital Transformation      ....       0.000 sec  (  0.0%)
Orbital Orthonormalization  ....       0.000 sec  (  0.0%)
DIIS solution               ....       0.027 sec  (  0.2%)
SOSCF solution              ....       0.033 sec  (  0.3%)


           ************************************************************
           *        Program running with 6 parallel MPI-processes     *
           *              working on a common directory               *
           ************************************************************

------------------------------------------------------------------------------
                                ORCA  MP2 
------------------------------------------------------------------------------

Freezing NCore=12 chemical core electrons
MP2 will be done in the AO integral direct mode
The Q1-step will be done using symmetric double matrices
Dimension of the basis                    ...  258
Memory devoted for MP2                    ... 8000 MB   
Memory needed for all in one shot         ...  264 MB
Number of MOs that can be treated together...  120      
MP2 density construction                  ... relaxed
The MP2 gradient is requested => amplitudes will be stored on disk
Total number of MOs              ...   24
Number of MOs treated per batch  ...    4 
Number of batches necessary      ...    1 
OPERATORS   0/  0 PASS   0
-----------------------------------------------
 MP2 CORRELATION ENERGY   :     -1.547369887 Eh
-----------------------------------------------


---------------------
MP2 DENSITY FORMATION
---------------------

Completing the external part of the density      ... done
Storing the unrelaxed density                    ... done

Calculating G(D)                                 ... done
Completing the Lagrangian                        ... done
Solving the Z-vector equations                   ... 

------------------------------------------------------------------------------
                           ORCA CP-SCF CALCULATION
------------------------------------------------------------------------------

Input orbitals are from        ... 12h2o.su.etal.mol1,3,4,7,8,11-orca.engrad-mp2.def2tzvp.frozencore.gbw
Input Perturbation             ... 12h2o.su.etal.mol1,3,4,7,8,11-orca.engrad-mp2.def2tzvp.frozencore.pin.tmp
Wavefunction output            ... 12h2o.su.etal.mol1,3,4,7,8,11-orca.engrad-mp2.def2tzvp.frozencore.pout.tmp
Perturbation mode              ... Real perturbation (singlet)
Solver                         ... POPLE
Max. number of iterations      ... 128
Convergence tolerance          ... 1.000e-08
Integral handling              ... Direct
Number of perturbations        ... 1
Number of operators            ... 1
Orbital ranges used for CP-SCF:
 Operator 0:  Orbitals   0... 29  to  30...257
Variables per vector in CP-SCF ... 6840
Number of vectors sought       ... 1
     CP-SCF ITERATION   0: 
     CP-SCF ITERATION   1:      0.000742281145
     CP-SCF ITERATION   2:      0.000017807586
     CP-SCF ITERATION   3:      0.000000844409
     CP-SCF ITERATION   4:      0.000000066520
     CP-SCF ITERATION   5:      0.000000004928
                                                 ... done
Finalizing the relaxed density                   ... done
Transforming P to the AO basis                   ... done
Storing the relaxed density                      ... done

------------------------------------
ENERGY WEIGHTED DENSITY FINALIZATION
------------------------------------

Gathering the parts of the W-matrix              ...                                                      done
Forming the Z-density                            ... done
Transforming Z to the AO basis                   ... done
Calculating G(Z)                                 ... done
Finalizing the W-matrix                          ...                                                      done
Transforming W to the AO basis and storing       ... done

                *********************************************
                * UNRELAXED MP2 DENSITY POPULATION ANALYSIS *
                *********************************************

------------------------------------------------------------------------------
                           ORCA POPULATION ANALYSIS
------------------------------------------------------------------------------
Input electron density              ... 12h2o.su.etal.mol1,3,4,7,8,11-orca.engrad-mp2.def2tzvp.frozencore.pmp2ur
BaseName (.gbw .S,...)              ... 12h2o.su.etal.mol1,3,4,7,8,11-orca.engrad-mp2.def2tzvp.frozencore

                    ********************************
                    * MULLIKEN POPULATION ANALYSIS *
                    ********************************

-----------------------
MULLIKEN ATOMIC CHARGES
-----------------------
   0 O :   -0.738432
   1 H :    0.378605
   2 H :    0.377080
   3 O :   -0.718349
   4 H :    0.381015
   5 H :    0.337661
   6 O :   -0.747466
   7 H :    0.346293
   8 H :    0.379368
   9 O :   -0.747709
  10 H :    0.407040
  11 H :    0.356239
  12 O :   -0.697024
  13 H :    0.346756
  14 H :    0.349122
  15 O :   -0.742774
  16 H :    0.384350
  17 H :    0.348225
Sum of atomic charges:   -0.0000000

--------------------------------
MULLIKEN REDUCED ORBITAL CHARGES
--------------------------------
  0 O s       :     3.802462  s :     3.802462
      pz      :     1.720385  p :     4.880751
      px      :     1.372600
      py      :     1.787766
      dz2     :     0.009444  d :     0.051173
      dxz     :     0.009723
      dyz     :     0.010970
      dx2y2   :     0.008044
      dxy     :     0.012993
      f0      :     0.000457  f :     0.004047
      f+1     :     0.000695
      f-1     :     0.000546
      f+2     :     0.000433
      f-2     :     0.000714
      f+3     :     0.000465
      f-3     :     0.000737
  1 H s       :     0.575058  s :     0.575058
      pz      :     0.017349  p :     0.046337
      px      :     0.013680
      py      :     0.015307
  2 H s       :     0.580863  s :     0.580863
      pz      :     0.011297  p :     0.042057
      px      :     0.017920
      py      :     0.012840
  3 O s       :     3.807784  s :     3.807784
      pz      :     1.539972  p :     4.854150
      px      :     1.512263
      py      :     1.801915
      dz2     :     0.016895  d :     0.052365
      dxz     :     0.006628
      dyz     :     0.008471
      dx2y2   :     0.007596
      dxy     :     0.012774
      f0      :     0.000631  f :     0.004050
      f+1     :     0.000742
      f-1     :     0.000539
      f+2     :     0.000414
      f-2     :     0.000420
      f+3     :     0.000435
      f-3     :     0.000869
  4 H s       :     0.568655  s :     0.568655
      pz      :     0.024189  p :     0.050330
      px      :     0.012238
      py      :     0.013903
  5 H s       :     0.615806  s :     0.615806
      pz      :     0.011735  p :     0.046533
      px      :     0.018263
      py      :     0.016535
  6 O s       :     3.804452  s :     3.804452
      pz      :     1.529188  p :     4.888132
      px      :     1.866797
      py      :     1.492147
      dz2     :     0.015828  d :     0.050854
      dxz     :     0.007991
      dyz     :     0.008063
      dx2y2   :     0.008463
      dxy     :     0.010509
      f0      :     0.000585  f :     0.004028
      f+1     :     0.000496
      f-1     :     0.000806
      f+2     :     0.000441
      f-2     :     0.000405
      f+3     :     0.000811
      f-3     :     0.000485
  7 H s       :     0.607065  s :     0.607065
      pz      :     0.018620  p :     0.046642
      px      :     0.015108
      py      :     0.012913
  8 H s       :     0.565526  s :     0.565526
      pz      :     0.009970  p :     0.055105
      px      :     0.016441
      py      :     0.028694
  9 O s       :     3.797547  s :     3.797547
      pz      :     1.604256  p :     4.894563
      px      :     1.453110
      py      :     1.837197
      dz2     :     0.016044  d :     0.051613
      dxz     :     0.007981
      dyz     :     0.007867
      dx2y2   :     0.009096
      dxy     :     0.010625
      f0      :     0.000556  f :     0.003985
      f+1     :     0.000811
      f-1     :     0.000492
      f+2     :     0.000435
      f-2     :     0.000404
      f+3     :     0.000478
      f-3     :     0.000810
 10 H s       :     0.543220  s :     0.543220
      pz      :     0.025127  p :     0.049740
      px      :     0.011434
      py      :     0.013179
 11 H s       :     0.600031  s :     0.600031
      pz      :     0.010286  p :     0.043730
      px      :     0.018601
      py      :     0.014843
 12 O s       :     3.810127  s :     3.810127
      pz      :     1.495426  p :     4.830167
      px      :     1.528884
      py      :     1.805857
      dz2     :     0.017240  d :     0.052651
      dxz     :     0.006573
      dyz     :     0.008440
      dx2y2   :     0.007576
      dxy     :     0.012822
      f0      :     0.000643  f :     0.004079
      f+1     :     0.000747
      f-1     :     0.000544
      f+2     :     0.000413
      f-2     :     0.000420
      f+3     :     0.000436
      f-3     :     0.000875
 13 H s       :     0.606881  s :     0.606881
      pz      :     0.019086  p :     0.046363
      px      :     0.012854
      py      :     0.014423
 14 H s       :     0.604834  s :     0.604834
      pz      :     0.011339  p :     0.046045
      px      :     0.018387
      py      :     0.016319
 15 O s       :     3.800620  s :     3.800620
      pz      :     1.544318  p :     4.886359
      px      :     1.805252
      py      :     1.536788
      dz2     :     0.016525  d :     0.051773
      dxz     :     0.008410
      dyz     :     0.006646
      dx2y2   :     0.007704
      dxy     :     0.012486
      f0      :     0.000631  f :     0.004023
      f+1     :     0.000535
      f-1     :     0.000739
      f+2     :     0.000417
      f-2     :     0.000421
      f+3     :     0.000844
      f-3     :     0.000436
 16 H s       :     0.565530  s :     0.565530
      pz      :     0.024245  p :     0.050120
      px      :     0.013651
      py      :     0.012224
 17 H s       :     0.599290  s :     0.599290
      pz      :     0.011533  p :     0.052485
      px      :     0.017597
      py      :     0.023355


                     *******************************
                     * LOEWDIN POPULATION ANALYSIS *
                     *******************************

----------------------
LOEWDIN ATOMIC CHARGES
----------------------
   0 O :   -0.292555
   1 H :    0.169735
   2 H :    0.190913
   3 O :   -0.337708
   4 H :    0.152717
   5 H :    0.159464
   6 O :   -0.339332
   7 H :    0.160401
   8 H :    0.149310
   9 O :   -0.288955
  10 H :    0.161846
  11 H :    0.173977
  12 O :   -0.329812
  13 H :    0.164038
  14 H :    0.164573
  15 O :   -0.353654
  16 H :    0.154961
  17 H :    0.140080

-------------------------------
LOEWDIN REDUCED ORBITAL CHARGES
-------------------------------
  0 O s       :     3.458475  s :     3.458475
      pz      :     1.675101  p :     4.769568
      px      :     1.356346
      py      :     1.738122
      dz2     :     0.011051  d :     0.059687
      dxz     :     0.012043
      dyz     :     0.011051
      dx2y2   :     0.009831
      dxy     :     0.015710
      f0      :     0.000470  f :     0.004826
      f+1     :     0.000857
      f-1     :     0.000658
      f+2     :     0.000409
      f-2     :     0.000999
      f+3     :     0.000475
      f-3     :     0.000957
  1 H s       :     0.663202  s :     0.663202
      pz      :     0.067783  p :     0.167062
      px      :     0.045430
      py      :     0.053850
  2 H s       :     0.657206  s :     0.657206
      pz      :     0.034098  p :     0.151880
      px      :     0.073216
      py      :     0.044567
  3 O s       :     3.464005  s :     3.464005
      pz      :     1.523336  p :     4.808808
      px      :     1.511720
      py      :     1.773753
      dz2     :     0.021384  d :     0.060007
      dxz     :     0.007243
      dyz     :     0.007751
      dx2y2   :     0.007846
      dxy     :     0.015783
      f0      :     0.000864  f :     0.004888
      f+1     :     0.000985
      f-1     :     0.000715
      f+2     :     0.000388
      f-2     :     0.000417
      f+3     :     0.000375
      f-3     :     0.001145
  4 H s       :     0.674201  s :     0.674201
      pz      :     0.093578  p :     0.173083
      px      :     0.036645
      py      :     0.042859
  5 H s       :     0.679763  s :     0.679763
      pz      :     0.031966  p :     0.160772
      px      :     0.072908
      py      :     0.055898
  6 O s       :     3.459504  s :     3.459504
      pz      :     1.515345  p :     4.815984
      px      :     1.828424
      py      :     1.472215
      dz2     :     0.020901  d :     0.059030
      dxz     :     0.007191
      dyz     :     0.009623
      dx2y2   :     0.009500
      dxy     :     0.011815
      f0      :     0.000815  f :     0.004814
      f+1     :     0.000576
      f-1     :     0.001178
      f+2     :     0.000417
      f-2     :     0.000417
      f+3     :     0.000966
      f-3     :     0.000444
  7 H s       :     0.677480  s :     0.677480
      pz      :     0.080575  p :     0.162119
      px      :     0.044142
      py      :     0.037402
  8 H s       :     0.663525  s :     0.663525
      pz      :     0.030062  p :     0.187165
      px      :     0.053375
      py      :     0.103728
  9 O s       :     3.454142  s :     3.454142
      pz      :     1.553404  p :     4.769856
      px      :     1.442293
      py      :     1.774159
      dz2     :     0.020492  d :     0.060140
      dxz     :     0.009027
      dyz     :     0.006948
      dx2y2   :     0.011151
      dxy     :     0.012522
      f0      :     0.000753  f :     0.004818
      f+1     :     0.001145
      f-1     :     0.000596
      f+2     :     0.000410
      f-2     :     0.000415
      f+3     :     0.000454
      f-3     :     0.001044
 10 H s       :     0.662478  s :     0.662478
      pz      :     0.096165  p :     0.175676
      px      :     0.036414
      py      :     0.043098
 11 H s       :     0.668284  s :     0.668284
      pz      :     0.031544  p :     0.157738
      px      :     0.075951
      py      :     0.050244
 12 O s       :     3.468968  s :     3.468968
      pz      :     1.500805  p :     4.795060
      px      :     1.517771
      py      :     1.776484
      dz2     :     0.022358  d :     0.060834
      dxz     :     0.007360
      dyz     :     0.007816
      dx2y2   :     0.007734
      dxy     :     0.015567
      f0      :     0.000902  f :     0.004949
      f+1     :     0.001011
      f-1     :     0.000722
      f+2     :     0.000388
      f-2     :     0.000418
      f+3     :     0.000375
      f-3     :     0.001133
 13 H s       :     0.675150  s :     0.675150
      pz      :     0.082031  p :     0.160813
      px      :     0.036049
      py      :     0.042733
 14 H s       :     0.675404  s :     0.675404
      pz      :     0.030489  p :     0.160023
      px      :     0.073565
      py      :     0.055969
 15 O s       :     3.457332  s :     3.457332
      pz      :     1.526443  p :     4.832857
      px      :     1.780084
      py      :     1.526330
      dz2     :     0.020691  d :     0.058642
      dxz     :     0.007692
      dyz     :     0.007217
      dx2y2   :     0.007795
      dxy     :     0.015247
      f0      :     0.000859  f :     0.004823
      f+1     :     0.000706
      f-1     :     0.000970
      f+2     :     0.000389
      f-2     :     0.000420
      f+3     :     0.001103
      f-3     :     0.000376
 16 H s       :     0.671182  s :     0.671182
      pz      :     0.093807  p :     0.173857
      px      :     0.042743
      py      :     0.037307
 17 H s       :     0.684752  s :     0.684752
      pz      :     0.032557  p :     0.175167
      px      :     0.058840
      py      :     0.083770


                      *****************************
                      * MAYER POPULATION ANALYSIS *
                      *****************************

  NA   - Mulliken gross atomic population
  ZA   - Total nuclear charge
  QA   - Mulliken gross atomic charge
  VA   - Mayer's total valence
  BVA  - Mayer's bonded valence
  FA   - Mayer's free valence

  ATOM       NA         ZA         QA         VA         BVA        FA
  0 O      8.7384     8.0000    -0.7384     2.0663     1.6743     0.3920
  1 H      0.6214     1.0000     0.3786     0.8765     0.8326     0.0439
  2 H      0.6229     1.0000     0.3771     0.8764     0.8292     0.0471
  3 O      8.7183     8.0000    -0.7183     2.0672     1.6788     0.3884
  4 H      0.6190     1.0000     0.3810     0.8807     0.8361     0.0445
  5 H      0.6623     1.0000     0.3377     0.9073     0.8588     0.0486
  6 O      8.7475     8.0000    -0.7475     2.0288     1.6361     0.3927
  7 H      0.6537     1.0000     0.3463     0.9032     0.8553     0.0479
  8 H      0.6206     1.0000     0.3794     0.8953     0.8483     0.0470
  9 O      8.7477     8.0000    -0.7477     2.0491     1.6559     0.3931
 10 H      0.5930     1.0000     0.4070     0.8671     0.8246     0.0425
 11 H      0.6438     1.0000     0.3562     0.8945     0.8462     0.0484
 12 O      8.6970     8.0000    -0.6970     2.0809     1.6951     0.3857
 13 H      0.6532     1.0000     0.3468     0.8994     0.8522     0.0472
 14 H      0.6509     1.0000     0.3491     0.9012     0.8538     0.0474
 15 O      8.7428     8.0000    -0.7428     2.0462     1.6565     0.3897
 16 H      0.6157     1.0000     0.3843     0.8826     0.8384     0.0442
 17 H      0.6518     1.0000     0.3482     0.9084     0.8609     0.0475

  Mayer bond orders larger than 0.100000
B(  0-O ,  1-H ) :   0.8243 B(  0-O ,  2-H ) :   0.8177 B(  3-O ,  4-H ) :   0.8181 
B(  3-O ,  5-H ) :   0.8500 B(  6-O ,  7-H ) :   0.8448 B(  6-O ,  8-H ) :   0.7879 
B(  9-O , 10-H ) :   0.7879 B(  9-O , 11-H ) :   0.8332 B( 12-O , 13-H ) :   0.8461 
B( 12-O , 14-H ) :   0.8426 B( 15-O , 16-H ) :   0.8140 B( 15-O , 17-H ) :   0.8410 



                *******************************************
                * RELAXED MP2 DENSITY POPULATION ANALYSIS *
                *******************************************

------------------------------------------------------------------------------
                           ORCA POPULATION ANALYSIS
------------------------------------------------------------------------------
Input electron density              ... 12h2o.su.etal.mol1,3,4,7,8,11-orca.engrad-mp2.def2tzvp.frozencore.pmp2re
BaseName (.gbw .S,...)              ... 12h2o.su.etal.mol1,3,4,7,8,11-orca.engrad-mp2.def2tzvp.frozencore

                    ********************************
                    * MULLIKEN POPULATION ANALYSIS *
                    ********************************

-----------------------
MULLIKEN ATOMIC CHARGES
-----------------------
   0 O :   -0.716134
   1 H :    0.371403
   2 H :    0.370073
   3 O :   -0.699784
   4 H :    0.368543
   5 H :    0.330782
   6 O :   -0.725072
   7 H :    0.338146
   8 H :    0.357524
   9 O :   -0.718364
  10 H :    0.391007
  11 H :    0.349248
  12 O :   -0.682584
  13 H :    0.339918
  14 H :    0.340790
  15 O :   -0.721446
  16 H :    0.371509
  17 H :    0.334440
Sum of atomic charges:   -0.0000000

--------------------------------
MULLIKEN REDUCED ORBITAL CHARGES
--------------------------------
  0 O s       :     3.806045  s :     3.806045
      pz      :     1.710550  p :     4.857079
      px      :     1.369399
      py      :     1.777129
      dz2     :     0.009210  d :     0.049037
      dxz     :     0.009147
      dyz     :     0.010718
      dx2y2   :     0.007815
      dxy     :     0.012148
      f0      :     0.000455  f :     0.003973
      f+1     :     0.000676
      f-1     :     0.000538
      f+2     :     0.000433
      f-2     :     0.000692
      f+3     :     0.000464
      f-3     :     0.000716
  1 H s       :     0.581605  s :     0.581605
      pz      :     0.017419  p :     0.046992
      px      :     0.013600
      py      :     0.015973
  2 H s       :     0.587328  s :     0.587328
      pz      :     0.012102  p :     0.042598
      px      :     0.016945
      py      :     0.013551
  3 O s       :     3.809684  s :     3.809684
      pz      :     1.536293  p :     4.835923
      px      :     1.504370
      py      :     1.795261
      dz2     :     0.015657  d :     0.050199
      dxz     :     0.006586
      dyz     :     0.008447
      dx2y2   :     0.007503
      dxy     :     0.012006
      f0      :     0.000614  f :     0.003978
      f+1     :     0.000720
      f-1     :     0.000529
      f+2     :     0.000415
      f-2     :     0.000419
      f+3     :     0.000435
      f-3     :     0.000845
  4 H s       :     0.580612  s :     0.580612
      pz      :     0.023332  p :     0.050845
      px      :     0.012721
      py      :     0.014793
  5 H s       :     0.621857  s :     0.621857
      pz      :     0.012484  p :     0.047361
      px      :     0.017684
      py      :     0.017193
  6 O s       :     3.806233  s :     3.806233
      pz      :     1.519321  p :     4.866094
      px      :     1.860404
      py      :     1.486370
      dz2     :     0.014646  d :     0.048785
      dxz     :     0.008015
      dyz     :     0.007781
      dx2y2   :     0.008257
      dxy     :     0.010086
      f0      :     0.000572  f :     0.003960
      f+1     :     0.000491
      f-1     :     0.000777
      f+2     :     0.000440
      f-2     :     0.000403
      f+3     :     0.000793
      f-3     :     0.000484
  7 H s       :     0.614463  s :     0.614463
      pz      :     0.017881  p :     0.047391
      px      :     0.016105
      py      :     0.013405
  8 H s       :     0.586983  s :     0.586983
      pz      :     0.010688  p :     0.055493
      px      :     0.017008
      py      :     0.027797
  9 O s       :     3.799041  s :     3.799041
      pz      :     1.597725  p :     4.865785
      px      :     1.445783
      py      :     1.822277
      dz2     :     0.015025  d :     0.049625
      dxz     :     0.007733
      dyz     :     0.007922
      dx2y2   :     0.008806
      dxy     :     0.010139
      f0      :     0.000545  f :     0.003913
      f+1     :     0.000781
      f-1     :     0.000486
      f+2     :     0.000435
      f-2     :     0.000402
      f+3     :     0.000476
      f-3     :     0.000788
 10 H s       :     0.558723  s :     0.558723
      pz      :     0.024466  p :     0.050270
      px      :     0.011768
      py      :     0.014035
 11 H s       :     0.606273  s :     0.606273
      pz      :     0.011077  p :     0.044479
      px      :     0.017778
      py      :     0.015624
 12 O s       :     3.814626  s :     3.814626
      pz      :     1.489147  p :     4.813649
      px      :     1.524488
      py      :     1.800014
      dz2     :     0.015852  d :     0.050306
      dxz     :     0.006503
      dyz     :     0.008396
      dx2y2   :     0.007490
      dxy     :     0.012065
      f0      :     0.000624  f :     0.004003
      f+1     :     0.000725
      f-1     :     0.000533
      f+2     :     0.000414
      f-2     :     0.000418
      f+3     :     0.000437
      f-3     :     0.000851
 13 H s       :     0.612994  s :     0.612994
      pz      :     0.018322  p :     0.047088
      px      :     0.013424
      py      :     0.015342
 14 H s       :     0.612415  s :     0.612415
      pz      :     0.012038  p :     0.046795
      px      :     0.017810
      py      :     0.016948
 15 O s       :     3.798870  s :     3.798870
      pz      :     1.539556  p :     4.868840
      px      :     1.798158
      py      :     1.531126
      dz2     :     0.015332  d :     0.049782
      dxz     :     0.008372
      dyz     :     0.006619
      dx2y2   :     0.007662
      dxy     :     0.011797
      f0      :     0.000615  f :     0.003954
      f+1     :     0.000526
      f-1     :     0.000718
      f+2     :     0.000417
      f-2     :     0.000420
      f+3     :     0.000822
      f-3     :     0.000437
 16 H s       :     0.577911  s :     0.577911
      pz      :     0.023403  p :     0.050580
      px      :     0.014485
      py      :     0.012693
 17 H s       :     0.612352  s :     0.612352
      pz      :     0.012290  p :     0.053208
      px      :     0.018113
      py      :     0.022805


                     *******************************
                     * LOEWDIN POPULATION ANALYSIS *
                     *******************************

----------------------
LOEWDIN ATOMIC CHARGES
----------------------
   0 O :   -0.286926
   1 H :    0.171301
   2 H :    0.191971
   3 O :   -0.337995
   4 H :    0.149602
   5 H :    0.160932
   6 O :   -0.338422
   7 H :    0.161444
   8 H :    0.142703
   9 O :   -0.280873
  10 H :    0.157454
  11 H :    0.175166
  12 O :   -0.332285
  13 H :    0.165443
  14 H :    0.165126
  15 O :   -0.353424
  16 H :    0.152023
  17 H :    0.136760

-------------------------------
LOEWDIN REDUCED ORBITAL CHARGES
-------------------------------
  0 O s       :     3.460208  s :     3.460208
      pz      :     1.669810  p :     4.763203
      px      :     1.361526
      py      :     1.731868
      dz2     :     0.010996  d :     0.058670
      dxz     :     0.011696
      dyz     :     0.011045
      dx2y2   :     0.009649
      dxy     :     0.015284
      f0      :     0.000474  f :     0.004845
      f+1     :     0.000862
      f-1     :     0.000659
      f+2     :     0.000409
      f-2     :     0.001000
      f+3     :     0.000478
      f-3     :     0.000962
  1 H s       :     0.661997  s :     0.661997
      pz      :     0.067646  p :     0.166702
      px      :     0.044648
      py      :     0.054408
  2 H s       :     0.656239  s :     0.656239
      pz      :     0.034743  p :     0.151790
      px      :     0.071765
      py      :     0.045282
  3 O s       :     3.465554  s :     3.465554
      pz      :     1.524343  p :     4.808724
      px      :     1.513273
      py      :     1.771108
      dz2     :     0.020759  d :     0.058811
      dxz     :     0.007121
      dyz     :     0.007788
      dx2y2   :     0.007762
      dxy     :     0.015380
      f0      :     0.000868  f :     0.004906
      f+1     :     0.000992
      f-1     :     0.000713
      f+2     :     0.000389
      f-2     :     0.000417
      f+3     :     0.000375
      f-3     :     0.001151
  4 H s       :     0.677008  s :     0.677008
      pz      :     0.092725  p :     0.173390
      px      :     0.036951
      py      :     0.043713
  5 H s       :     0.677982  s :     0.677982
      pz      :     0.032385  p :     0.161086
      px      :     0.072249
      py      :     0.056452
  6 O s       :     3.460979  s :     3.460979
      pz      :     1.514324  p :     4.814391
      px      :     1.825646
      py      :     1.474421
      dz2     :     0.020404  d :     0.058204
      dxz     :     0.007260
      dyz     :     0.009400
      dx2y2   :     0.009442
      dxy     :     0.011698
      f0      :     0.000816  f :     0.004847
      f+1     :     0.000577
      f-1     :     0.001191
      f+2     :     0.000420
      f-2     :     0.000416
      f+3     :     0.000981
      f-3     :     0.000447
  7 H s       :     0.676182  s :     0.676182
      pz      :     0.079890  p :     0.162374
      px      :     0.045063
      py      :     0.037422
  8 H s       :     0.669568  s :     0.669568
      pz      :     0.030442  p :     0.187728
      px      :     0.054074
      py      :     0.103212
  9 O s       :     3.455412  s :     3.455412
      pz      :     1.551917  p :     4.761215
      px      :     1.444874
      py      :     1.764425
      dz2     :     0.020204  d :     0.059405
      dxz     :     0.008857
      dyz     :     0.007037
      dx2y2   :     0.011013
      dxy     :     0.012294
      f0      :     0.000756  f :     0.004841
      f+1     :     0.001153
      f-1     :     0.000597
      f+2     :     0.000412
      f-2     :     0.000414
      f+3     :     0.000456
      f-3     :     0.001051
 10 H s       :     0.666729  s :     0.666729
      pz      :     0.095588  p :     0.175817
      px      :     0.036365
      py      :     0.043864
 11 H s       :     0.666930  s :     0.666930
      pz      :     0.032094  p :     0.157904
      px      :     0.074970
      py      :     0.050839
 12 O s       :     3.471045  s :     3.471045
      pz      :     1.502569  p :     4.796826
      px      :     1.519983
      py      :     1.774274
      dz2     :     0.021561  d :     0.059449
      dxz     :     0.007209
      dyz     :     0.007835
      dx2y2   :     0.007657
      dxy     :     0.015188
      f0      :     0.000902  f :     0.004965
      f+1     :     0.001019
      f-1     :     0.000720
      f+2     :     0.000390
      f-2     :     0.000417
      f+3     :     0.000375
      f-3     :     0.001141
 13 H s       :     0.673669  s :     0.673669
      pz      :     0.081188  p :     0.160888
      px      :     0.036159
      py      :     0.043541
 14 H s       :     0.674713  s :     0.674713
      pz      :     0.030793  p :     0.160161
      px      :     0.072820
      py      :     0.056548
 15 O s       :     3.458051  s :     3.458051
      pz      :     1.527413  p :     4.832875
      px      :     1.778042
      py      :     1.527420
      dz2     :     0.020137  d :     0.057653
      dxz     :     0.007711
      dyz     :     0.007103
      dx2y2   :     0.007761
      dxy     :     0.014940
      f0      :     0.000863  f :     0.004846
      f+1     :     0.000705
      f-1     :     0.000979
      f+2     :     0.000390
      f-2     :     0.000420
      f+3     :     0.001113
      f-3     :     0.000376
 16 H s       :     0.673868  s :     0.673868
      pz      :     0.092896  p :     0.174109
      px      :     0.043539
      py      :     0.037675
 17 H s       :     0.687160  s :     0.687160
      pz      :     0.033146  p :     0.176080
      px      :     0.059535
      py      :     0.083399


                      *****************************
                      * MAYER POPULATION ANALYSIS *
                      *****************************

  NA   - Mulliken gross atomic population
  ZA   - Total nuclear charge
  QA   - Mulliken gross atomic charge
  VA   - Mayer's total valence
  BVA  - Mayer's bonded valence
  FA   - Mayer's free valence

  ATOM       NA         ZA         QA         VA         BVA        FA
  0 O      8.7161     8.0000    -0.7161     2.1050     1.7194     0.3856
  1 H      0.6286     1.0000     0.3714     0.8823     0.8384     0.0439
  2 H      0.6299     1.0000     0.3701     0.8836     0.8366     0.0470
  3 O      8.6998     8.0000    -0.6998     2.0828     1.6998     0.3830
  4 H      0.6315     1.0000     0.3685     0.8976     0.8532     0.0443
  5 H      0.6692     1.0000     0.3308     0.9136     0.8652     0.0485
  6 O      8.7251     8.0000    -0.7251     2.0476     1.6603     0.3872
  7 H      0.6619     1.0000     0.3381     0.9096     0.8618     0.0479
  8 H      0.6425     1.0000     0.3575     0.9246     0.8788     0.0458
  9 O      8.7184     8.0000    -0.7184     2.0985     1.7119     0.3866
 10 H      0.6090     1.0000     0.3910     0.8885     0.8465     0.0421
 11 H      0.6508     1.0000     0.3492     0.9018     0.8535     0.0482
 12 O      8.6826     8.0000    -0.6826     2.0883     1.7076     0.3807
 13 H      0.6601     1.0000     0.3399     0.9053     0.8581     0.0472
 14 H      0.6592     1.0000     0.3408     0.9100     0.8628     0.0472
 15 O      8.7214     8.0000    -0.7214     2.0643     1.6798     0.3846
 16 H      0.6285     1.0000     0.3715     0.8998     0.8557     0.0440
 17 H      0.6656     1.0000     0.3344     0.9274     0.8802     0.0472

  Mayer bond orders larger than 0.100000
B(  0-O ,  1-H ) :   0.8280 B(  0-O ,  2-H ) :   0.8210 B(  3-O ,  4-H ) :   0.8234 
B(  3-O ,  5-H ) :   0.8531 B(  6-O ,  7-H ) :   0.8478 B(  6-O ,  8-H ) :   0.7868 
B(  9-O , 10-H ) :   0.7922 B(  9-O , 11-H ) :   0.8356 B( 12-O , 13-H ) :   0.8504 
B( 12-O , 14-H ) :   0.8469 B( 15-O , 16-H ) :   0.8193 B( 15-O , 17-H ) :   0.8447 



----------------------------------
MP2 DERIVATIVE INTEGRAL GENERATION
----------------------------------


Input Wavefunction Amplitudes       ... 12h2o.su.etal.mol1,3,4,7,8,11-orca.engrad-mp2.def2tzvp.frozencore.mp2tsaa.tmp
Input Correlated Electron Density   ... 12h2o.su.etal.mol1,3,4,7,8,11-orca.engrad-mp2.def2tzvp.frozencore.pmp2re
Input Energy Weighted Density       ... 12h2o.su.etal.mol1,3,4,7,8,11-orca.engrad-mp2.def2tzvp.frozencore.wmp2.tmp
Input SCF Electron Density          ... 12h2o.su.etal.mol1,3,4,7,8,11-orca.engrad-mp2.def2tzvp.frozencore.scfp

One-Electron Terms    ...
                        ... One-Electron Terms done
Prescreening matrices              ... done

Batch handling in the gradient evaluation:
Memory available                      ... 8000.0 MB
Memory per occupied orbital in Q2     ...   12.2 MB
Memory per occupied orbital in Q3     ...    0.1 MB
Total memory requirement per |i>      ...   12.3 MB
Max. Number of orbitals possible      ...    651
Number of orbitals treated per batch  ...     24
Number of batches to be done          ...      1
Batch   0: i=    6 ...    29

---------------------------------------
MP2 TOTAL ENERGY:     -457.914149203 Eh
---------------------------------------

The final MP2 gradient
  0:  -0.02514113   0.01256862   0.00310488
  1:   0.00034230   0.00220113  -0.00332054
  2:   0.02565562  -0.01007275  -0.00177305
  3:  -0.00889902   0.00581610  -0.00327853
  4:  -0.00056370  -0.00167930   0.00504311
  5:   0.00895093  -0.00630187   0.00081999
  6:   0.00346174   0.00334965   0.01182675
  7:   0.00022391   0.00166716  -0.00994739
  8:  -0.00341242  -0.00867473   0.00236298
  9:  -0.01643025   0.01066881  -0.00259072
 10:   0.00010147  -0.00042692  -0.00125336
 11:   0.01570404  -0.00642659   0.00126459
 12:   0.00711225  -0.00559433  -0.00831702
 13:   0.00273018   0.00061625   0.00799026
 14:  -0.00840754   0.00611545  -0.00044204
 15:   0.00508512   0.00659864   0.00016992
 16:  -0.00329569   0.00081156  -0.00299506
 17:  -0.00321780  -0.01123689   0.00133524

-----------------------------------
NORM OF THE MP2 GRADIENT:  0.058735
-----------------------------------

-------------------------   --------------------
FINAL SINGLE POINT ENERGY      -457.914149202966
-------------------------   --------------------


                            ***************************************
                            *     ORCA property calculations      *
                            ***************************************

                                    ---------------------
                                    Active property flags
                                    ---------------------
   (+) Dipole Moment


------------------------------------------------------------------------------
                       ORCA ELECTRIC PROPERTIES CALCULATION
------------------------------------------------------------------------------

Dipole Moment Calculation                       ... on
Quadrupole Moment Calculation                   ... off
Polarizability Calculation                      ... off
GBWName                                         ... 12h2o.su.etal.mol1,3,4,7,8,11-orca.engrad-mp2.def2tzvp.frozencore.gbw
Electron density file                           ... 12h2o.su.etal.mol1,3,4,7,8,11-orca.engrad-mp2.def2tzvp.frozencore.scfp
The origin for moment calculation is the CENTER OF MASS  = (-1.630388,  0.486208 -0.012373)

-------------
DIPOLE MOMENT
-------------
                                X             Y             Z
Electronic contribution:     -0.15203      -0.04918       0.02386
Nuclear contribution   :     -0.25623      -2.04245       1.31870
                        -----------------------------------------
Total Dipole Moment    :     -0.40825      -2.09164       1.34256
                        -----------------------------------------
Magnitude (a.u.)       :      2.51875
Magnitude (Debye)      :      6.40215



--------------------
Rotational spectrum 
--------------------
 
Rotational constants in cm-1:     0.059571     0.024866     0.019778 
Rotational constants in MHz :  1785.883188   745.466472   592.915934 

 Dipole components along the rotational axes: 
x,y,z [a.u.] :     1.331398     1.643596     1.367502 
x,y,z [Debye]:     3.384145     4.177688     3.475914 

 

                         *** MP2 UNRELAXED DENSITY ***

------------------------------------------------------------------------------
                       ORCA ELECTRIC PROPERTIES CALCULATION
------------------------------------------------------------------------------

Dipole Moment Calculation                       ... on
Quadrupole Moment Calculation                   ... off
Polarizability Calculation                      ... off
GBWName                                         ... 12h2o.su.etal.mol1,3,4,7,8,11-orca.engrad-mp2.def2tzvp.frozencore.gbw
Electron density file                           ... 12h2o.su.etal.mol1,3,4,7,8,11-orca.engrad-mp2.def2tzvp.frozencore.pmp2ur
The origin for moment calculation is the CENTER OF MASS  = (-1.630388,  0.486208 -0.012373)

-------------
DIPOLE MOMENT
-------------
                                X             Y             Z
Electronic contribution:     -0.15185      -0.03110       0.01267
Nuclear contribution   :     -0.25623      -2.04245       1.31870
                        -----------------------------------------
Total Dipole Moment    :     -0.40807      -2.07355       1.33137
                        -----------------------------------------
Magnitude (a.u.)       :      2.49773
Magnitude (Debye)      :      6.34874



--------------------
Rotational spectrum 
--------------------
 
Rotational constants in cm-1:     0.059571     0.024866     0.019778 
Rotational constants in MHz :  1785.883188   745.466472   592.915934 

 Dipole components along the rotational axes: 
x,y,z [a.u.] :     1.321186     1.631444     1.353343 
x,y,z [Debye]:     3.358188     4.146801     3.439923 

 

                           *** MP2 RELAXED DENSITY ***

------------------------------------------------------------------------------
                       ORCA ELECTRIC PROPERTIES CALCULATION
------------------------------------------------------------------------------

Dipole Moment Calculation                       ... on
Quadrupole Moment Calculation                   ... off
Polarizability Calculation                      ... off
GBWName                                         ... 12h2o.su.etal.mol1,3,4,7,8,11-orca.engrad-mp2.def2tzvp.frozencore.gbw
Electron density file                           ... 12h2o.su.etal.mol1,3,4,7,8,11-orca.engrad-mp2.def2tzvp.frozencore.pmp2re
The origin for moment calculation is the CENTER OF MASS  = (-1.630388,  0.486208 -0.012373)

-------------
DIPOLE MOMENT
-------------
                                X             Y             Z
Electronic contribution:     -0.14408      -0.02321       0.00195
Nuclear contribution   :     -0.25623      -2.04245       1.31870
                        -----------------------------------------
Total Dipole Moment    :     -0.40031      -2.06567       1.32065
                        -----------------------------------------
Magnitude (a.u.)       :      2.48422
Magnitude (Debye)      :      6.31439



--------------------
Rotational spectrum 
--------------------
 
Rotational constants in cm-1:     0.059571     0.024866     0.019778 
Rotational constants in MHz :  1785.883188   745.466472   592.915934 

 Dipole components along the rotational axes: 
x,y,z [a.u.] :     1.309050     1.622154     1.351426 
x,y,z [Debye]:     3.327341     4.123187     3.435053 

 

Timings for individual modules:

Sum of individual times         ...       58.749 sec (=   0.979 min)
GTO integral calculation        ...        0.909 sec (=   0.015 min)   1.5 %
SCF iterations                  ...       11.783 sec (=   0.196 min)  20.1 %
MP2 module                      ...       46.058 sec (=   0.768 min)  78.4 %
                             ****ORCA TERMINATED NORMALLY****
TOTAL RUN TIME: 0 days 0 hours 0 minutes 59 seconds 727 msec
