45
Energy:   -615.23987207
O   -0.12675536  -1.80465020   0.00649928
H   -0.33123698  -1.09695208   0.61771322
H    0.43795936  -2.39593206   0.50420894
O   -1.30292314   2.65646544   0.87765113
H   -2.16325573   2.44773540   0.51365737
H   -1.46247307   3.39926944   1.45990355
O    3.55753110  -1.84899878  -0.04474278
H    3.77083481  -1.09138615   0.50001082
H    3.08904727  -1.48143539  -0.79417718
O    1.56323685  -0.77006513   2.97093717
H    1.57734776  -1.65963279   2.61780533
H    0.70572831  -0.42610866   2.72072745
O   -3.39211503  -0.55381300   1.22000508
H   -3.63773902   0.27567982   0.81031940
H   -3.28001544  -1.15944330   0.48728585
O    0.35852917   2.94762855  -1.29477632
H   -0.21646262   2.91149539  -0.53037415
H    1.20648969   2.64280424  -0.97185690
O   -0.12961330   1.00575396  -3.08181094
H    0.01982003   1.73498534  -2.48004428
H    0.00908954   1.38019628  -3.95174561
O    1.62822653  -0.63084017  -1.70807516
H    1.08973879  -0.14329321  -2.33142159
H    0.99719857  -1.06545989  -1.13436681
O    2.58070621   1.61715524  -0.46520261
H    3.01114666   1.30078787   0.32906721
H    2.31641197   0.82199437  -0.92791159
O   -0.81625440   0.10206878   1.81193640
H   -0.83926610   1.01690574   1.53126639
H   -1.73234628  -0.17524147   1.80161437
O    3.68643368   0.30861066   1.70317830
H    2.93962935  -0.00562090   2.21285827
H    4.31773728   0.60367343   2.35939898
O   -2.62936146  -2.03319144  -1.01443241
H   -2.80952233  -2.92830215  -1.30174882
H   -1.72507841  -2.05896626  -0.70163909
O   -3.67989615   1.82351425  -0.19555437
H   -3.35452749   1.38705456  -0.98287261
H   -4.51081772   2.21534296  -0.46438786
O    1.76336791  -3.12642215   1.49193466
H    2.46289546  -2.76262873   0.94921245
H    2.07473176  -3.99930953   1.73141751
O   -2.70766293   0.43118207  -2.27570628
H   -2.68444306  -0.47508911  -1.96851702
H   -1.82507726   0.59454973  -2.60825008
