45
Energy:   -616.60239015
O   -0.63530677  -1.37421252   0.39735134
H   -0.26398884  -1.79415404   1.17324049
H    0.10830754  -1.26475188  -0.19534417
O   -1.17300216   1.25238548   0.85865813
H   -2.12216833   1.30193354   0.74525433
H   -0.96555632   0.32513352   0.74289168
O    2.80164336  -2.62223061   0.66343602
H    3.44979684  -2.01694899   1.02366246
H    2.46797801  -2.17991579  -0.11711307
O    2.14174108  -0.31463722   3.56978296
H    1.58046356  -1.04144476   3.29969001
H    1.69398722   0.46726333   3.24670425
O   -3.76355351   1.05369925   0.06133397
H   -3.67530798   0.14127967  -0.21422922
H   -3.79474841   1.54954503  -0.75683209
O   -0.78153197   2.34861520  -1.63953672
H   -1.68881263   2.47744276  -1.91608168
H   -0.84731127   2.04767431  -0.73325889
O    0.13880518   0.33415307  -3.15695292
H   -0.11289533   1.09273650  -2.63023679
H    0.61767625   0.70490544  -3.89820660
O    1.53222408  -0.91195720  -1.15097508
H    1.12945952  -0.54616464  -1.93850817
H    1.96504690  -0.16668716  -0.73447920
O    2.73408867   1.03492130   0.28612190
H    2.17473328   1.44386609   0.94651388
H    3.39319753   0.55890696   0.79131266
O    1.03454655   1.89751625   2.30964603
H    0.19983712   1.73347405   1.87080417
H    0.97019212   2.80154456   2.61757976
O    4.24360783  -0.61082508   1.91998513
H    3.57267306  -0.50633886   2.59464135
H    5.07271683  -0.53657902   2.39252892
O   -3.04616431  -1.47296335  -0.88192099
H   -3.45160169  -2.32926225  -0.74552236
H   -2.20473007  -1.53100192  -0.42931544
O   -3.42767062   2.18306358  -2.44864454
H   -3.19556850   1.34209344  -2.84250960
H   -4.01082437   2.59413026  -3.08675718
O    0.80765314  -2.47341739   2.45641094
H    1.52573755  -2.61627255   1.83982434
H    0.72946726  -3.30167493   2.92981169
O   -2.57538789  -0.22054724  -3.30671910
H   -2.74532461  -0.75782028  -2.53296782
H   -1.62143099  -0.15302794  -3.34720646
