45
Energy:   -615.21960664
O   -1.99849197  -1.67647501   1.01305086
H   -2.22544183  -0.79623736   1.31289628
H   -2.31534076  -1.71169133   0.11049975
O   -2.51244668  -1.74532274  -1.64501332
H   -2.41540861  -0.83542415  -1.92590478
H   -1.72404515  -2.18158091  -1.96802056
O    1.05047756   3.51323736  -1.52267039
H    0.33278543   3.23340922  -0.95447493
H    0.80274220   3.20183534  -2.39323792
O    0.05789386   0.33273600   3.39862323
H    0.31878665  -0.57734090   3.53978567
H    0.69916646   0.67214168   2.77427950
O   -0.70543216   1.98391750   0.06271089
H   -1.37672239   1.77057460   0.71085138
H    0.10648793   1.64138199   0.43645817
O   -2.24173843   0.85549426   2.07668279
H   -2.89898647   1.20096457   2.68075821
H   -1.47270250   0.69659484   2.62400953
O    0.40810048  -1.51336270  -2.04423595
H    1.15321891  -1.04846077  -2.42488877
H    0.67392126  -1.69553512  -1.14291227
O    0.84619827  -2.34532373   3.42251201
H    1.33556080  -2.80313603   4.10600601
H    0.00912428  -2.80728166   3.37631829
O    0.35363422   2.14147870  -3.82439502
H   -0.30692567   1.62854330  -3.35878816
H   -0.04784584   2.33803999  -4.67080466
O   -1.59193216  -3.47465105   3.03635286
H   -2.18139492  -4.22491969   2.95978615
H   -1.85129388  -2.89186863   2.32268067
O   -1.23955440   0.64056183  -2.24866126
H   -1.12389784   1.11822044  -1.42726144
H   -0.63838297  -0.10127701  -2.18157999
O    1.53349285   0.88341249   1.10851539
H    1.36728247  -0.03245002   0.88535219
H    2.20873609   1.16237827   0.49008471
O    0.71368583  -1.68490213   0.70822531
H    1.00247804  -2.04318393   1.54754948
H   -0.24139328  -1.66907357   0.76991153
O    3.11081188   1.89567052  -0.90149895
H    2.44598052   2.55142445  -1.11177944
H    3.92990634   2.38919794  -0.85970420
O    2.24599594   0.27435016  -2.97630493
H    2.67758029   0.76642832  -2.27785960
H    1.70856793   0.92337119  -3.43036955
