
                                 *****************
                                 * O   R   C   A *
                                 *****************

           --- An Ab Initio, DFT and Semiempirical electronic structure package ---

                  #######################################################
                  #                        -***-                        #
                  #          Department of theory and spectroscopy      #
                  #               Directorship: Frank Neese             #
                  #        Max Planck Institute fuer Kohlenforschung    #
                  #                Kaiser Wilhelm Platz 1               #
                  #                 D-45470 Muelheim/Ruhr               #
                  #                      Germany                        #
                  #                                                     #
                  #                  All rights reserved                #
                  #                        -***-                        #
                  #######################################################


                         Program Version 4.2.0 -  RELEASE  -


 With contributions from (in alphabetic order):
   Daniel Aravena         : Magnetic Suceptibility
   Michael Atanasov       : Ab Initio Ligand Field Theory (pilot matlab implementation)
   Alexander A. Auer      : GIAO ZORA, VPT2
   Ute Becker             : Parallelization
   Giovanni Bistoni       : ED, misc. LED, open-shell LED, HFLED
   Martin Brehm           : Molecular dynamics
   Dmytro Bykov           : SCF Hessian
   Vijay G. Chilkuri      : MRCI spin determinant printing, contributions to CSF-ICE
   Dipayan Datta          : RHF DLPNO-CCSD density
   Achintya Kumar Dutta   : EOM-CC, STEOM-CC
   Dmitry Ganyushin       : Spin-Orbit,Spin-Spin,Magnetic field MRCI
   Miquel Garcia          : C-PCM Hessian, Gaussian charge scheme
   Yang Guo               : DLPNO-NEVPT2, CIM, IAO-localization
   Andreas Hansen         : Spin unrestricted coupled pair/coupled cluster methods
   Benjamin Helmich-Paris : CASSCF linear response (MC-RPA)
   Lee Huntington         : MR-EOM, pCC
   Robert Izsak           : Overlap fitted RIJCOSX, COSX-SCS-MP3, EOM
   Christian Kollmar      : KDIIS, OOCD, Brueckner-CCSD(T), CCSD density
   Simone Kossmann        : Meta GGA functionals, TD-DFT gradient, OOMP2, MP2 Hessian
   Martin Krupicka        : AUTO-CI
   Lucas Lang             : DCDCAS
   Dagmar Lenk            : GEPOL surface, SMD
   Dimitrios Liakos       : Extrapolation schemes; Compound Job, initial MDCI parallelization
   Dimitrios Manganas     : Further ROCIS development; embedding schemes
   Dimitrios Pantazis     : SARC Basis sets
   Taras Petrenko         : DFT Hessian,TD-DFT gradient, ASA, ECA, R-Raman, ABS, FL, XAS/XES, NRVS
   Peter Pinski           : DLPNO-MP2, DLPNO-MP2 Gradient
   Christoph Reimann      : Effective Core Potentials
   Marius Retegan         : Local ZFS, SOC
   Christoph Riplinger    : Optimizer, TS searches, QM/MM, DLPNO-CCSD(T), (RO)-DLPNO pert. Triples
   Tobias Risthaus        : Range-separated hybrids, TD-DFT gradient, RPA, STAB
   Michael Roemelt        : Original ROCIS implementation
   Masaaki Saitow         : Open-shell DLPNO-CCSD energy and density
   Barbara Sandhoefer     : DKH picture change effects
   Avijit Sen             : IP-ROCIS
   Kantharuban Sivalingam : CASSCF convergence, NEVPT2, FIC-MRCI
   Bernardo de Souza      : ESD, SOC TD-DFT
   Georgi Stoychev        : AutoAux, RI-MP2 NMR
   Willem Van den Heuvel  : Paramagnetic NMR
   Boris Wezisla          : Elementary symmetry handling
   Frank Wennmohs         : Technical directorship


 We gratefully acknowledge several colleagues who have allowed us to
 interface, adapt or use parts of their codes:
   Stefan Grimme, W. Hujo, H. Kruse,             : VdW corrections, initial TS optimization,
                  C. Bannwarth                     DFT functionals, gCP, sTDA/sTD-DF
   Ed Valeev, F. Pavosevic, A. Kumar             : LibInt (2-el integral package), F12 methods
   Garnet Chan, S. Sharma, J. Yang, R. Olivares  : DMRG
   Ulf Ekstrom                                   : XCFun DFT Library
   Mihaly Kallay                                 : mrcc  (arbitrary order and MRCC methods)
   Andreas Klamt, Michael Diedenhofen            : otool_cosmo (COSMO solvation model)
   Jiri Pittner, Ondrej Demel                    : Mk-CCSD
   Frank Weinhold                                : gennbo (NPA and NBO analysis)
   Christopher J. Cramer and Donald G. Truhlar   : smd solvation model
   Lars Goerigk                                  : TD-DFT with DH, B97 family of functionals
   V. Asgeirsson, H. Jonsson                     : NEB implementation
   FAccTs GmbH                                   : IRC, NEB, NEB-TS, Multilevel, MM, QM/MM, CI optimization
   S Lehtola, MJT Oliveira, MAL Marques          : LibXC Library


 Your calculation uses the libint2 library for the computation of 2-el integrals
 For citations please refer to: http://libint.valeyev.net

 Your ORCA version has been built with support for libXC version: 4.2.3
 For citations please refer to: https://tddft.org/programs/libxc/

 This ORCA versions uses:
   CBLAS   interface :  Fast vector & matrix operations
   LAPACKE interface :  Fast linear algebra routines
   SCALAPACK package :  Parallel linear algebra routines


----- Orbital basis set information -----
Your calculation utilizes the basis: def2-TZVP
   F. Weigend and R. Ahlrichs, Phys. Chem. Chem. Phys. 7, 3297 (2005).

================================================================================
                                        WARNINGS
                       Please study these warnings very carefully!
================================================================================


WARNING: The frozen-core approximation for MP2-gradient calculations is turned on by default.

INFO   : the flag for use of LIBINT has been found!

================================================================================
                                       INPUT FILE
================================================================================
NAME = 6h2o.temelso.etal.pr-orca.engrad-mp2.def2tzvp.inp
|  1> ! MP2 def2-TZVP EnGrad TightSCF FrozenCore
|  2> 
|  3> %pal
|  4>     nprocs 8
|  5> end
|  6> 
|  7> %maxcore 8000
|  8> 
|  9> %scf
| 10>     ConvForced true
| 11> end
| 12> 
| 13> *xyz 0 1
| 14> O          0.00000        0.00000        0.00000
| 15> H          0.97280        0.00000        0.00000
| 16> H         -0.18000        0.00000       -0.96648
| 17> O          0.10169        0.49343       -2.75007
| 18> H          1.05637        0.55697       -2.57102
| 19> H         -0.19283        1.42221       -2.75889
| 20> O          2.55727        0.79340       -1.16609
| 21> H          3.51287        0.66972       -1.21469
| 22> H          2.42632        1.75395       -0.98231
| 23> O          1.80474        3.37960       -0.65145
| 24> H          1.28776        3.65410       -1.42657
| 25> H          1.10375        3.24322        0.01251
| 26> O         -0.67842        2.52503        0.50718
| 27> H         -0.48332        1.54915        0.42466
| 28> H         -1.24033        2.61749        1.28587
| 29> O         -0.70968        3.23420       -2.17182
| 30> H         -1.44144        3.72573       -2.56469
| 31> H         -0.96750        3.07402       -1.23916 
| 32> *
| 33> 
| 34> 
| 35>                          ****END OF INPUT****
================================================================================

                     *******************************
                     * Energy+Gradient Calculation *
                     *******************************

---------------------------------
CARTESIAN COORDINATES (ANGSTROEM)
---------------------------------
  O      0.000000    0.000000    0.000000
  H      0.972800    0.000000    0.000000
  H     -0.180000    0.000000   -0.966480
  O      0.101690    0.493430   -2.750070
  H      1.056370    0.556970   -2.571020
  H     -0.192830    1.422210   -2.758890
  O      2.557270    0.793400   -1.166090
  H      3.512870    0.669720   -1.214690
  H      2.426320    1.753950   -0.982310
  O      1.804740    3.379600   -0.651450
  H      1.287760    3.654100   -1.426570
  H      1.103750    3.243220    0.012510
  O     -0.678420    2.525030    0.507180
  H     -0.483320    1.549150    0.424660
  H     -1.240330    2.617490    1.285870
  O     -0.709680    3.234200   -2.171820
  H     -1.441440    3.725730   -2.564690
  H     -0.967500    3.074020   -1.239160

----------------------------
CARTESIAN COORDINATES (A.U.)
----------------------------
  NO LB      ZA    FRAG     MASS         X           Y           Z
   0 O     8.0000    0    15.999    0.000000    0.000000    0.000000
   1 H     1.0000    0     1.008    1.838326    0.000000    0.000000
   2 H     1.0000    0     1.008   -0.340151    0.000000   -1.826383
   3 O     8.0000    0    15.999    0.192166    0.932448   -5.196879
   4 H     1.0000    0     1.008    1.996250    1.052521   -4.858524
   5 H     1.0000    0     1.008   -0.364396    2.687587   -5.213547
   6 O     8.0000    0    15.999    4.832540    1.499309   -2.203591
   7 H     1.0000    0     1.008    6.638362    1.265587   -2.295431
   8 H     1.0000    0     1.008    4.585080    3.314485   -1.856297
   9 O     8.0000    0    15.999    3.410464    6.386518   -1.231062
  10 H     1.0000    0     1.008    2.433514    6.905248   -2.695827
  11 H     1.0000    0     1.008    2.085785    6.128798    0.023640
  12 O     8.0000    0    15.999   -1.282028    4.771615    0.958431
  13 H     1.0000    0     1.008   -0.913342    2.927469    0.802491
  14 H     1.0000    0     1.008   -2.343884    4.946339    2.429942
  15 O     8.0000    0    15.999   -1.341101    6.111752   -4.104145
  16 H     1.0000    0     1.008   -2.723927    7.040609   -4.846562
  17 H     1.0000    0     1.008   -1.828310    5.809056   -2.341673

--------------------------------
INTERNAL COORDINATES (ANGSTROEM)
--------------------------------
 O      0   0   0     0.000000000000     0.00000000     0.00000000
 H      1   0   0     0.972800000000     0.00000000     0.00000000
 H      1   2   0     0.983098972840   100.55005695     0.00000000
 O      3   1   2     1.871901629119   155.38989506   320.72979215
 H      4   3   1     0.973401323453    89.40016731    32.58066927
 H      4   3   1     0.974398332921   102.38016803   288.74011300
 O      5   4   3     2.069402875179   147.52971687   338.29910638
 H      7   5   4     0.964795347418   132.03035527   167.24038278
 H      7   5   4     0.986701217897    98.12988261   286.58105266
 O      9   7   5     1.771600394700   167.07032361    43.50041064
 H     10   9   7     0.971303034485   107.27970810   295.61986246
 H     10   9   7     0.975104797496   104.53983062    42.91922881
 O     12  10   9     1.984093040636   150.01024954   292.84971667
 H     13  12  10     0.998606696753    99.07020578    66.53079980
 H     13  12  10     0.964701931065   133.60983076   188.90993789
 O      6   4   3     1.973598963189   162.10006412    18.41069536
 H     16   6   4     0.965101691740   123.02972228   219.21994363
 H     16   6   4     0.980807555232   101.63975867   336.85921867

---------------------------
INTERNAL COORDINATES (A.U.)
---------------------------
 O      0   0   0     0.000000000000     0.00000000     0.00000000
 H      1   0   0     1.838325583079     0.00000000     0.00000000
 H      1   2   0     1.857787821208   100.55005695     0.00000000
 O      3   1   2     3.537381428677   155.38989506   320.72979215
 H      4   3   1     1.839461919723    89.40016731    32.58066927
 H      4   3   1     1.841345994571   102.38016803   288.74011300
 O      5   4   3     3.910604694838   147.52971687   338.29910638
 H      7   5   4     1.823198981902   132.03035527   167.24038278
 H      7   5   4     1.864595077832    98.12988261   286.58105266
 O      9   7   5     3.347839564729   167.07032361    43.50041064
 H     10   9   7     1.835496728224   107.27970810   295.61986246
 H     10   9   7     1.842681019140   104.53983062    42.91922881
 O     12  10   9     3.749392471021   150.01024954   292.84971667
 H     13  12  10     1.887093172363    99.07020578    66.53079980
 H     13  12  10     1.823022450577   133.60983076   188.90993789
 O      6   4   3     3.729561538618   162.10006412    18.41069536
 H     16   6   4     1.823777888773   123.02972228   219.21994363
 H     16   6   4     1.853457669469   101.63975867   336.85921867

---------------------
BASIS SET INFORMATION
---------------------
There are 2 groups of distinct atoms

 Group   1 Type O   : 11s6p2d1f contracted to 5s3p2d1f pattern {62111/411/11/1}
 Group   2 Type H   : 5s1p contracted to 3s1p pattern {311/1}

Atom   0O    basis set group =>   1
Atom   1H    basis set group =>   2
Atom   2H    basis set group =>   2
Atom   3O    basis set group =>   1
Atom   4H    basis set group =>   2
Atom   5H    basis set group =>   2
Atom   6O    basis set group =>   1
Atom   7H    basis set group =>   2
Atom   8H    basis set group =>   2
Atom   9O    basis set group =>   1
Atom  10H    basis set group =>   2
Atom  11H    basis set group =>   2
Atom  12O    basis set group =>   1
Atom  13H    basis set group =>   2
Atom  14H    basis set group =>   2
Atom  15O    basis set group =>   1
Atom  16H    basis set group =>   2
Atom  17H    basis set group =>   2


           ************************************************************
           *        Program running with 8 parallel MPI-processes     *
           *              working on a common directory               *
           ************************************************************
------------------------------------------------------------------------------
                           ORCA GTO INTEGRAL CALCULATION
------------------------------------------------------------------------------

                         BASIS SET STATISTICS AND STARTUP INFO

 # of primitive gaussian shells          ...  192
 # of primitive gaussian functions       ...  372
 # of contracted shells                  ...  114
 # of contracted basis functions         ...  258
 Highest angular momentum                ...    3
 Maximum contraction depth               ...    6
 Integral package used                   ... LIBINT
 Integral threshhold            Thresh   ...  2.500e-11
 Primitive cut-off              TCut     ...  2.500e-12


------------------------------ INTEGRAL EVALUATION ----------------------------


 * One electron integrals 
 Pre-screening matrix                    ... done
 Shell pair data                         ... done (   0.001 sec)



           ************************************************************
           *        Program running with 8 parallel MPI-processes     *
           *              working on a common directory               *
           ************************************************************
-------------------------------------------------------------------------------
                                 ORCA SCF
-------------------------------------------------------------------------------

------------
SCF SETTINGS
------------
Hamiltonian:
 Ab initio Hamiltonian  Method          .... Hartree-Fock(GTOs)


General Settings:
 Integral files         IntName         .... 6h2o.temelso.etal.pr-orca.engrad-mp2.def2tzvp
 Hartree-Fock type      HFTyp           .... RHF
 Total Charge           Charge          ....    0
 Multiplicity           Mult            ....    1
 Number of Electrons    NEL             ....   60
 Basis Dimension        Dim             ....  258
 Nuclear Repulsion      ENuc            ....    303.8625310174 Eh

Convergence Acceleration:
 DIIS                   CNVDIIS         .... on
   Start iteration      DIISMaxIt       ....    12
   Startup error        DIISStart       ....  0.200000
   # of expansion vecs  DIISMaxEq       ....     5
   Bias factor          DIISBfac        ....   1.050
   Max. coefficient     DIISMaxC        ....  10.000
 Newton-Raphson         CNVNR           .... off
 SOSCF                  CNVSOSCF        .... on
   Start iteration      SOSCFMaxIt      ....   150
   Startup grad/error   SOSCFStart      ....  0.003300
 Level Shifting         CNVShift        .... on
   Level shift para.    LevelShift      ....    0.2500
   Turn off err/grad.   ShiftErr        ....    0.0010
 Zerner damping         CNVZerner       .... off
 Static damping         CNVDamp         .... on
   Fraction old density DampFac         ....    0.7000
   Max. Damping (<1)    DampMax         ....    0.9800
   Min. Damping (>=0)   DampMin         ....    0.0000
   Turn off err/grad.   DampErr         ....    0.1000
 Fernandez-Rico         CNVRico         .... off

SCF Procedure:
 Maximum # iterations   MaxIter         ....   125
 SCF integral mode      SCFMode         .... Direct
   Integral package                     .... LIBINT
 Reset frequency        DirectResetFreq ....    20
 Integral Threshold     Thresh          ....  2.500e-11 Eh
 Primitive CutOff       TCut            ....  2.500e-12 Eh

Convergence Tolerance:
 Convergence Check Mode ConvCheckMode   .... Total+1el-Energy
 Convergence forced     ConvForced      .... 1
 Energy Change          TolE            ....  1.000e-08 Eh
 1-El. energy change                    ....  1.000e-05 Eh
 Orbital Gradient       TolG            ....  1.000e-05
 Orbital Rotation angle TolX            ....  1.000e-05
 DIIS Error             TolErr          ....  5.000e-07


Diagonalization of the overlap matrix:
Smallest eigenvalue                        ... 4.135e-03
Time for diagonalization                   ...    0.070 sec
Threshold for overlap eigenvalues          ... 1.000e-08
Number of eigenvalues below threshold      ... 0
Time for construction of square roots      ...    0.009 sec
Total time needed                          ...    0.079 sec

-------------------
DFT GRID GENERATION
-------------------

General Integration Accuracy     IntAcc      ...  4.340
Radial Grid Type                 RadialGrid  ... Gauss-Chebyshev
Angular Grid (max. acc.)         AngularGrid ... Lebedev-110
Angular grid pruning method      GridPruning ... 3 (G Style)
Weight generation scheme         WeightScheme... Becke
Basis function cutoff            BFCut       ...    1.0000e-11
Integration weight cutoff        WCut        ...    1.0000e-14
Grids for H and He will be reduced by one unit

# of grid points (after initial pruning)     ...  19824 (   0.0 sec)
# of grid points (after weights+screening)   ...  18453 (   0.0 sec)
nearest neighbour list constructed           ...    0.0 sec
Grid point re-assignment to atoms done       ...    0.0 sec
Grid point division into batches done        ...    0.0 sec
Reduced shell lists constructed in    0.0 sec

Total number of grid points                  ...    18453
Total number of batches                      ...      297
Average number of points per batch           ...       62
Average number of grid points per atom       ...     1025
Average number of shells per batch           ...    68.56 (60.14%)
Average number of basis functions per batch  ...   145.69 (56.47%)
Average number of large shells per batch     ...    49.21 (71.77%)
Average number of large basis fcns per batch ...    97.92 (67.21%)
Maximum spatial batch extension              ...  16.07, 16.41, 16.41 au
Average spatial batch extension              ...   0.43,  0.53,  0.48 au

Time for grid setup =    0.049 sec

------------------------------
INITIAL GUESS: MODEL POTENTIAL
------------------------------
Loading Hartree-Fock densities                     ... done
Calculating cut-offs                               ... done
Setting up the integral package                    ... done
Initializing the effective Hamiltonian             ... done
Starting the Coulomb interaction                   ... done (   0.0 sec)
Reading the grid                                   ... done
Mapping shells                                     ... done
Starting the XC term evaluation                    ... done (   0.0 sec)
Transforming the Hamiltonian                       ... done (   0.0 sec)
Diagonalizing the Hamiltonian                      ... done (   0.0 sec)
Back transforming the eigenvectors                 ... done (   0.0 sec)
Now organizing SCF variables                       ... done
                      ------------------
                      INITIAL GUESS DONE (   0.2 sec)
                      ------------------
--------------
SCF ITERATIONS
--------------
ITER       Energy         Delta-E        Max-DP      RMS-DP      [F,P]     Damp
               ***  Starting incremental Fock matrix formation  ***
  0   -455.9138599506   0.000000000000 0.04119149  0.00093628  0.3142445 0.7000
  1   -456.1042878184  -0.190427867821 0.02714325  0.00064801  0.2160267 0.7000
                               ***Turning on DIIS***
  2   -456.2059622286  -0.101674410209 0.01578835  0.00036498  0.1630652 0.7000
  3   -457.1774798126  -0.971517583940 0.00747465  0.00017027  0.1210938 0.7000
  4   -456.9808561433   0.196623669293 0.01645431  0.00039475  0.0857413 0.0000
  5   -456.4376405965   0.543215546827 0.00183092  0.00006158  0.0052363 0.0000
                      *** Initiating the SOSCF procedure ***
                           *** Shutting down DIIS ***
                      *** Re-Reading the Fockian *** 
                      *** Removing any level shift *** 
ITER      Energy       Delta-E        Grad      Rot      Max-DP    RMS-DP
  6   -456.41073456   0.0269060335  0.000828  0.000828  0.001256  0.000038
               *** Restarting incremental Fock matrix formation ***
  7   -456.40306958   0.0076649841  0.000313  0.000470  0.000617  0.000017
  8   -456.40307744  -0.0000078598  0.000131  0.000398  0.000509  0.000014
  9   -456.40307941  -0.0000019685  0.000044  0.000042  0.000065  0.000002
 10   -456.40307954  -0.0000001286  0.000013  0.000010  0.000016  0.000001
                  ***Gradient check signals convergence***
              ***Rediagonalizing the Fockian in SOSCF/NRSCF***

               *****************************************************
               *                     SUCCESS                       *
               *           SCF CONVERGED AFTER  11 CYCLES          *
               *****************************************************


----------------
TOTAL SCF ENERGY
----------------

Total Energy       :         -456.40307954 Eh          -12419.35918 eV

Components:
Nuclear Repulsion  :          303.86253102 Eh            8268.51983 eV
Electronic Energy  :         -760.26561056 Eh          -20687.87901 eV
One Electron Energy:        -1235.79831752 Eh          -33627.78182 eV
Two Electron Energy:          475.53270696 Eh           12939.90281 eV

Virial components:
Potential Energy   :         -912.24662618 Eh          -24823.49270 eV
Kinetic Energy     :          455.84354663 Eh           12404.13352 eV
Virial Ratio       :            2.00122747


---------------
SCF CONVERGENCE
---------------

  Last Energy change         ...   -6.4632e-09  Tolerance :   1.0000e-08
  Last MAX-Density change    ...    5.6288e-06  Tolerance :   1.0000e-07
  Last RMS-Density change    ...    1.2066e-07  Tolerance :   5.0000e-09
  Last Orbital Gradient      ...    1.8423e-06  Tolerance :   1.0000e-05
  Last Orbital Rotation      ...    2.2967e-06  Tolerance :   1.0000e-05

             **** THE GBW FILE WAS UPDATED (6h2o.temelso.etal.pr-orca.engrad-mp2.def2tzvp.gbw) ****
             **** DENSITY FILE WAS UPDATED (6h2o.temelso.etal.pr-orca.engrad-mp2.def2tzvp.scfp) ****
             **** ENERGY FILE WAS UPDATED (6h2o.temelso.etal.pr-orca.engrad-mp2.def2tzvp.en.tmp) ****
             **** THE GBW FILE WAS UPDATED (6h2o.temelso.etal.pr-orca.engrad-mp2.def2tzvp.gbw) ****
             **** DENSITY FILE WAS UPDATED (6h2o.temelso.etal.pr-orca.engrad-mp2.def2tzvp.scfp) ****
----------------
ORBITAL ENERGIES
----------------

  NO   OCC          E(Eh)            E(eV) 
   0   2.0000     -20.577957      -559.9547 
   1   2.0000     -20.573455      -559.8322 
   2   2.0000     -20.561809      -559.5153 
   3   2.0000     -20.561792      -559.5148 
   4   2.0000     -20.550478      -559.2069 
   5   2.0000     -20.541434      -558.9608 
   6   2.0000      -1.373074       -37.3633 
   7   2.0000      -1.358409       -36.9642 
   8   2.0000      -1.354609       -36.8608 
   9   2.0000      -1.344897       -36.5965 
  10   2.0000      -1.334620       -36.3169 
  11   2.0000      -1.323251       -36.0075 
  12   2.0000      -0.745741       -20.2926 
  13   2.0000      -0.729308       -19.8455 
  14   2.0000      -0.722908       -19.6713 
  15   2.0000      -0.708232       -19.2720 
  16   2.0000      -0.698036       -18.9945 
  17   2.0000      -0.694027       -18.8854 
  18   2.0000      -0.627525       -17.0758 
  19   2.0000      -0.620753       -16.8915 
  20   2.0000      -0.597798       -16.2669 
  21   2.0000      -0.586609       -15.9624 
  22   2.0000      -0.577389       -15.7116 
  23   2.0000      -0.552220       -15.0267 
  24   2.0000      -0.524422       -14.2703 
  25   2.0000      -0.523093       -14.2341 
  26   2.0000      -0.511588       -13.9210 
  27   2.0000      -0.507825       -13.8186 
  28   2.0000      -0.499031       -13.5793 
  29   2.0000      -0.484242       -13.1769 
  30   0.0000       0.113309         3.0833 
  31   0.0000       0.142694         3.8829 
  32   0.0000       0.149066         4.0563 
  33   0.0000       0.204326         5.5600 
  34   0.0000       0.212690         5.7876 
  35   0.0000       0.235217         6.4006 
  36   0.0000       0.273398         7.4396 
  37   0.0000       0.280134         7.6228 
  38   0.0000       0.301940         8.2162 
  39   0.0000       0.317296         8.6341 
  40   0.0000       0.327124         8.9015 
  41   0.0000       0.340815         9.2740 
  42   0.0000       0.411325        11.1927 
  43   0.0000       0.486453        13.2371 
  44   0.0000       0.488120        13.2824 
  45   0.0000       0.506077        13.7711 
  46   0.0000       0.516263        14.0482 
  47   0.0000       0.521554        14.1922 
  48   0.0000       0.539459        14.6794 
  49   0.0000       0.550173        14.9710 
  50   0.0000       0.572558        15.5801 
  51   0.0000       0.596278        16.2256 
  52   0.0000       0.598697        16.2914 
  53   0.0000       0.610285        16.6067 
  54   0.0000       0.629357        17.1257 
  55   0.0000       0.636819        17.3287 
  56   0.0000       0.669341        18.2137 
  57   0.0000       0.703107        19.1325 
  58   0.0000       0.709794        19.3145 
  59   0.0000       0.722374        19.6568 
  60   0.0000       0.731243        19.8981 
  61   0.0000       0.742065        20.1926 
  62   0.0000       0.751412        20.4470 
  63   0.0000       0.781243        21.2587 
  64   0.0000       0.806702        21.9515 
  65   0.0000       0.814295        22.1581 
  66   0.0000       0.836447        22.7609 
  67   0.0000       0.847193        23.0533 
  68   0.0000       0.857403        23.3311 
  69   0.0000       0.874608        23.7993 
  70   0.0000       0.895664        24.3722 
  71   0.0000       0.913070        24.8459 
  72   0.0000       0.946971        25.7684 
  73   0.0000       0.977236        26.5919 
  74   0.0000       0.994732        27.0680 
  75   0.0000       1.024550        27.8794 
  76   0.0000       1.125761        30.6335 
  77   0.0000       1.194597        32.5066 
  78   0.0000       1.347434        36.6655 
  79   0.0000       1.381619        37.5958 
  80   0.0000       1.402626        38.1674 
  81   0.0000       1.413508        38.4635 
  82   0.0000       1.423183        38.7268 
  83   0.0000       1.445496        39.3339 
  84   0.0000       1.453307        39.5465 
  85   0.0000       1.474033        40.1105 
  86   0.0000       1.476125        40.1674 
  87   0.0000       1.498377        40.7729 
  88   0.0000       1.512836        41.1664 
  89   0.0000       1.537564        41.8392 
  90   0.0000       1.567504        42.6540 
  91   0.0000       1.569438        42.7066 
  92   0.0000       1.602094        43.5952 
  93   0.0000       1.619593        44.0714 
  94   0.0000       1.626507        44.2595 
  95   0.0000       1.656747        45.0824 
  96   0.0000       1.827446        49.7273 
  97   0.0000       1.868029        50.8316 
  98   0.0000       1.874817        51.0164 
  99   0.0000       1.891754        51.4772 
 100   0.0000       1.898062        51.6489 
 101   0.0000       1.911099        52.0037 
 102   0.0000       1.922515        52.3143 
 103   0.0000       1.972632        53.6780 
 104   0.0000       1.991652        54.1956 
 105   0.0000       2.013153        54.7807 
 106   0.0000       2.021679        55.0127 
 107   0.0000       2.037873        55.4533 
 108   0.0000       2.078696        56.5642 
 109   0.0000       2.114641        57.5423 
 110   0.0000       2.150635        58.5217 
 111   0.0000       2.163904        58.8828 
 112   0.0000       2.168399        59.0051 
 113   0.0000       2.190284        59.6006 
 114   0.0000       2.262578        61.5679 
 115   0.0000       2.267494        61.7017 
 116   0.0000       2.287522        62.2466 
 117   0.0000       2.311460        62.8980 
 118   0.0000       2.323962        63.2382 
 119   0.0000       2.340426        63.6862 
 120   0.0000       2.359801        64.2135 
 121   0.0000       2.376256        64.6612 
 122   0.0000       2.390292        65.0432 
 123   0.0000       2.430841        66.1466 
 124   0.0000       2.440359        66.4056 
 125   0.0000       2.468576        67.1734 
 126   0.0000       2.481842        67.5343 
 127   0.0000       2.527288        68.7710 
 128   0.0000       2.530477        68.8578 
 129   0.0000       2.539541        69.1044 
 130   0.0000       2.570604        69.9497 
 131   0.0000       2.596331        70.6498 
 132   0.0000       2.619559        71.2818 
 133   0.0000       2.627344        71.4937 
 134   0.0000       2.645180        71.9790 
 135   0.0000       2.659727        72.3749 
 136   0.0000       2.673174        72.7408 
 137   0.0000       2.690436        73.2105 
 138   0.0000       2.702425        73.5367 
 139   0.0000       2.717164        73.9378 
 140   0.0000       2.750133        74.8349 
 141   0.0000       2.804772        76.3217 
 142   0.0000       2.825536        76.8867 
 143   0.0000       2.842163        77.3392 
 144   0.0000       2.936955        79.9186 
 145   0.0000       2.958611        80.5079 
 146   0.0000       2.971688        80.8637 
 147   0.0000       2.987582        81.2962 
 148   0.0000       2.991643        81.4067 
 149   0.0000       3.016722        82.0892 
 150   0.0000       3.036221        82.6198 
 151   0.0000       3.042857        82.8003 
 152   0.0000       3.058304        83.2207 
 153   0.0000       3.068026        83.4852 
 154   0.0000       3.087870        84.0252 
 155   0.0000       3.118946        84.8708 
 156   0.0000       3.131898        85.2233 
 157   0.0000       3.155663        85.8700 
 158   0.0000       3.165552        86.1390 
 159   0.0000       3.233334        87.9835 
 160   0.0000       3.258139        88.6585 
 161   0.0000       3.305574        89.9492 
 162   0.0000       3.346746        91.0696 
 163   0.0000       3.379033        91.9482 
 164   0.0000       3.418901        93.0330 
 165   0.0000       3.440107        93.6101 
 166   0.0000       3.491675        95.0133 
 167   0.0000       3.524069        95.8948 
 168   0.0000       4.021304       109.4253 
 169   0.0000       4.048959       110.1778 
 170   0.0000       4.094896       111.4278 
 171   0.0000       4.109417       111.8229 
 172   0.0000       4.168369       113.4271 
 173   0.0000       4.200559       114.3030 
 174   0.0000       4.297928       116.9526 
 175   0.0000       4.301947       117.0619 
 176   0.0000       4.323928       117.6601 
 177   0.0000       4.354072       118.4803 
 178   0.0000       4.370291       118.9217 
 179   0.0000       4.407309       119.9290 
 180   0.0000       5.528208       150.4302 
 181   0.0000       5.540018       150.7516 
 182   0.0000       5.542475       150.8184 
 183   0.0000       5.545848       150.9102 
 184   0.0000       5.548419       150.9802 
 185   0.0000       5.561450       151.3347 
 186   0.0000       5.620881       152.9519 
 187   0.0000       5.628780       153.1669 
 188   0.0000       5.636297       153.3714 
 189   0.0000       5.676169       154.4564 
 190   0.0000       5.689020       154.8061 
 191   0.0000       5.716557       155.5554 
 192   0.0000       5.794678       157.6812 
 193   0.0000       5.810512       158.1121 
 194   0.0000       5.812959       158.1787 
 195   0.0000       5.819060       158.3447 
 196   0.0000       5.827578       158.5765 
 197   0.0000       5.833611       158.7406 
 198   0.0000       5.836578       158.8214 
 199   0.0000       5.849206       159.1650 
 200   0.0000       5.860667       159.4769 
 201   0.0000       5.866495       159.6355 
 202   0.0000       5.868951       159.7023 
 203   0.0000       5.887549       160.2083 
 204   0.0000       5.889523       160.2621 
 205   0.0000       5.902099       160.6043 
 206   0.0000       5.908730       160.7847 
 207   0.0000       5.913974       160.9274 
 208   0.0000       5.926561       161.2699 
 209   0.0000       5.931023       161.3913 
 210   0.0000       6.450032       175.5143 
 211   0.0000       6.460753       175.8060 
 212   0.0000       6.466377       175.9591 
 213   0.0000       6.502721       176.9480 
 214   0.0000       6.508325       177.1005 
 215   0.0000       6.510461       177.1586 
 216   0.0000       6.658387       181.1839 
 217   0.0000       6.682497       181.8400 
 218   0.0000       6.702490       182.3840 
 219   0.0000       6.726743       183.0440 
 220   0.0000       6.748472       183.6353 
 221   0.0000       6.768462       184.1792 
 222   0.0000       6.828941       185.8249 
 223   0.0000       6.842402       186.1912 
 224   0.0000       6.865213       186.8119 
 225   0.0000       6.875241       187.0848 
 226   0.0000       6.886244       187.3842 
 227   0.0000       6.903772       187.8612 
 228   0.0000       6.916812       188.2160 
 229   0.0000       6.918765       188.2692 
 230   0.0000       6.936665       188.7562 
 231   0.0000       6.939351       188.8293 
 232   0.0000       6.953072       189.2027 
 233   0.0000       6.958913       189.3616 
 234   0.0000       6.983768       190.0380 
 235   0.0000       6.993976       190.3158 
 236   0.0000       7.008089       190.6998 
 237   0.0000       7.022328       191.0873 
 238   0.0000       7.067842       192.3258 
 239   0.0000       7.105067       193.3387 
 240   0.0000       7.356869       200.1906 
 241   0.0000       7.390102       201.0949 
 242   0.0000       7.428804       202.1480 
 243   0.0000       7.445739       202.6089 
 244   0.0000       7.447808       202.6652 
 245   0.0000       7.484418       203.6614 
 246   0.0000       7.509784       204.3516 
 247   0.0000       7.533136       204.9871 
 248   0.0000       7.560359       205.7278 
 249   0.0000       7.584637       206.3885 
 250   0.0000       7.614751       207.2079 
 251   0.0000       7.636903       207.8107 
 252   0.0000      44.954133      1223.2641 
 253   0.0000      44.971380      1223.7335 
 254   0.0000      44.985722      1224.1237 
 255   0.0000      45.006145      1224.6795 
 256   0.0000      45.096020      1227.1251 
 257   0.0000      45.148460      1228.5521 

                    ********************************
                    * MULLIKEN POPULATION ANALYSIS *
                    ********************************

-----------------------
MULLIKEN ATOMIC CHARGES
-----------------------
   0 O :   -0.770506
   1 H :    0.384618
   2 H :    0.408694
   3 O :   -0.764233
   4 H :    0.379874
   5 H :    0.386725
   6 O :   -0.780780
   7 H :    0.356018
   8 H :    0.406400
   9 O :   -0.756194
  10 H :    0.383769
  11 H :    0.391681
  12 O :   -0.805083
  13 H :    0.424670
  14 H :    0.363068
  15 O :   -0.764066
  16 H :    0.358992
  17 H :    0.396354
Sum of atomic charges:   -0.0000000

--------------------------------
MULLIKEN REDUCED ORBITAL CHARGES
--------------------------------
  0 O s       :     3.799381  s :     3.799381
      pz      :     1.543976  p :     4.945275
      px      :     1.464140
      py      :     1.937158
      dz2     :     0.013737  d :     0.024575
      dxz     :     0.000833
      dyz     :     0.000976
      dx2y2   :     0.008264
      dxy     :     0.000766
      f0      :     0.000404  f :     0.001275
      f+1     :     0.000219
      f-1     :     0.000027
      f+2     :     0.000049
      f-2     :     0.000006
      f+3     :     0.000509
      f-3     :     0.000063
  1 H s       :     0.569906  s :     0.569906
      pz      :     0.009644  p :     0.045477
      px      :     0.022536
      py      :     0.013296
  2 H s       :     0.541497  s :     0.541497
      pz      :     0.028173  p :     0.049809
      px      :     0.009077
      py      :     0.012559
  3 O s       :     3.805862  s :     3.805862
      pz      :     1.942115  p :     4.932083
      px      :     1.443487
      py      :     1.546481
      dz2     :     0.004946  d :     0.024924
      dxz     :     0.001798
      dyz     :     0.001325
      dx2y2   :     0.014315
      dxy     :     0.002540
      f0      :     0.000150  f :     0.001364
      f+1     :     0.000309
      f-1     :     0.000325
      f+2     :     0.000077
      f-2     :     0.000012
      f+3     :     0.000446
      f-3     :     0.000045
  4 H s       :     0.573377  s :     0.573377
      pz      :     0.014175  p :     0.046748
      px      :     0.022821
      py      :     0.009752
  5 H s       :     0.564294  s :     0.564294
      pz      :     0.013338  p :     0.048981
      px      :     0.011114
      py      :     0.024530
  6 O s       :     3.806185  s :     3.806185
      pz      :     1.942599  p :     4.950781
      px      :     1.467497
      py      :     1.540685
      dz2     :     0.004173  d :     0.022380
      dxz     :     0.000688
      dyz     :     0.001574
      dx2y2   :     0.015749
      dxy     :     0.000197
      f0      :     0.000171  f :     0.001433
      f+1     :     0.000392
      f-1     :     0.000275
      f+2     :     0.000075
      f-2     :     0.000023
      f+3     :     0.000296
      f-3     :     0.000202
  7 H s       :     0.598458  s :     0.598458
      pz      :     0.014854  p :     0.045524
      px      :     0.019711
      py      :     0.010958
  8 H s       :     0.540625  s :     0.540625
      pz      :     0.013159  p :     0.052974
      px      :     0.009380
      py      :     0.030435
  9 O s       :     3.800995  s :     3.800995
      pz      :     1.404982  p :     4.929180
      px      :     1.628966
      py      :     1.895232
      dz2     :     0.000693  d :     0.024665
      dxz     :     0.015280
      dyz     :     0.000994
      dx2y2   :     0.004952
      dxy     :     0.002745
      f0      :     0.000046  f :     0.001355
      f+1     :     0.000417
      f-1     :     0.000210
      f+2     :     0.000320
      f-2     :     0.000201
      f+3     :     0.000097
      f-3     :     0.000064
 10 H s       :     0.571026  s :     0.571026
      pz      :     0.017216  p :     0.045205
      px      :     0.014063
      py      :     0.013927
 11 H s       :     0.560643  s :     0.560643
      pz      :     0.015676  p :     0.047677
      px      :     0.018663
      py      :     0.013338
 12 O s       :     3.802646  s :     3.802646
      pz      :     1.632312  p :     4.980301
      px      :     1.777574
      py      :     1.570415
      dz2     :     0.005441  d :     0.020751
      dxz     :     0.006509
      dyz     :     0.000323
      dx2y2   :     0.007738
      dxy     :     0.000740
      f0      :     0.000036  f :     0.001385
      f+1     :     0.000563
      f-1     :     0.000127
      f+2     :     0.000196
      f-2     :     0.000087
      f+3     :     0.000130
      f-3     :     0.000247
 13 H s       :     0.519477  s :     0.519477
      pz      :     0.009602  p :     0.055853
      px      :     0.011921
      py      :     0.034330
 14 H s       :     0.591549  s :     0.591549
      pz      :     0.018050  p :     0.045383
      px      :     0.016563
      py      :     0.010770
 15 O s       :     3.804544  s :     3.804544
      pz      :     1.465442  p :     4.935342
      px      :     1.651648
      py      :     1.818251
      dz2     :     0.007578  d :     0.022732
      dxz     :     0.006159
      dyz     :     0.000818
      dx2y2   :     0.002353
      dxy     :     0.005824
      f0      :     0.000413  f :     0.001448
      f+1     :     0.000137
      f-1     :     0.000164
      f+2     :     0.000055
      f-2     :     0.000296
      f+3     :     0.000062
      f-3     :     0.000322
 16 H s       :     0.595591  s :     0.595591
      pz      :     0.012403  p :     0.045417
      px      :     0.016793
      py      :     0.016222
 17 H s       :     0.553677  s :     0.553677
      pz      :     0.027534  p :     0.049969
      px      :     0.009995
      py      :     0.012440


                     *******************************
                     * LOEWDIN POPULATION ANALYSIS *
                     *******************************

----------------------
LOEWDIN ATOMIC CHARGES
----------------------
   0 O :   -0.307773
   1 H :    0.162607
   2 H :    0.165125
   3 O :   -0.322770
   4 H :    0.157375
   5 H :    0.154807
   6 O :   -0.338478
   7 H :    0.160687
   8 H :    0.158841
   9 O :   -0.307024
  10 H :    0.163821
  11 H :    0.161765
  12 O :   -0.335119
  13 H :    0.162232
  14 H :    0.161792
  15 O :   -0.322960
  16 H :    0.163871
  17 H :    0.161204

-------------------------------
LOEWDIN REDUCED ORBITAL CHARGES
-------------------------------
  0 O s       :     3.455448  s :     3.455448
      pz      :     1.519029  p :     4.820429
      px      :     1.450636
      py      :     1.850764
      dz2     :     0.017042  d :     0.029905
      dxz     :     0.000846
      dyz     :     0.000692
      dx2y2   :     0.010599
      dxy     :     0.000725
      f0      :     0.000768  f :     0.001991
      f+1     :     0.000476
      f-1     :     0.000009
      f+2     :     0.000017
      f-2     :     0.000005
      f+3     :     0.000703
      f-3     :     0.000012
  1 H s       :     0.671514  s :     0.671514
      pz      :     0.030406  p :     0.165879
      px      :     0.091380
      py      :     0.044093
  2 H s       :     0.656903  s :     0.656903
      pz      :     0.107594  p :     0.177972
      px      :     0.027964
      py      :     0.042414
  3 O s       :     3.456922  s :     3.456922
      pz      :     1.860296  p :     4.833448
      px      :     1.435416
      py      :     1.537736
      dz2     :     0.005907  d :     0.030425
      dxz     :     0.001803
      dyz     :     0.000610
      dx2y2   :     0.018942
      dxy     :     0.003162
      f0      :     0.000083  f :     0.001976
      f+1     :     0.000340
      f-1     :     0.000362
      f+2     :     0.000123
      f-2     :     0.000002
      f+3     :     0.000787
      f-3     :     0.000279
  4 H s       :     0.674654  s :     0.674654
      pz      :     0.046638  p :     0.167971
      px      :     0.090622
      py      :     0.030712
  5 H s       :     0.672694  s :     0.672694
      pz      :     0.044076  p :     0.172500
      px      :     0.033544
      py      :     0.094880
  6 O s       :     3.456643  s :     3.456643
      pz      :     1.875374  p :     4.851050
      px      :     1.457551
      py      :     1.518125
      dz2     :     0.005297  d :     0.028798
      dxz     :     0.000668
      dyz     :     0.001353
      dx2y2   :     0.021060
      dxy     :     0.000419
      f0      :     0.000082  f :     0.001987
      f+1     :     0.000473
      f-1     :     0.000252
      f+2     :     0.000106
      f-2     :     0.000011
      f+3     :     0.000628
      f-3     :     0.000435
  7 H s       :     0.676376  s :     0.676376
      pz      :     0.045313  p :     0.162936
      px      :     0.085368
      py      :     0.032255
  8 H s       :     0.653142  s :     0.653142
      pz      :     0.043682  p :     0.188017
      px      :     0.029858
      py      :     0.114477
  9 O s       :     3.453411  s :     3.453411
      pz      :     1.384716  p :     4.821165
      px      :     1.618735
      py      :     1.817714
      dz2     :     0.002071  d :     0.030391
      dxz     :     0.019944
      dyz     :     0.001753
      dx2y2   :     0.004124
      dxy     :     0.002498
      f0      :     0.000057  f :     0.002056
      f+1     :     0.000739
      f-1     :     0.000194
      f+2     :     0.000618
      f-2     :     0.000277
      f+3     :     0.000095
      f-3     :     0.000075
 10 H s       :     0.671586  s :     0.671586
      pz      :     0.064104  p :     0.164593
      px      :     0.052716
      py      :     0.047773
 11 H s       :     0.668058  s :     0.668058
      pz      :     0.055561  p :     0.170178
      px      :     0.071022
      py      :     0.043595
 12 O s       :     3.454537  s :     3.454537
      pz      :     1.596485  p :     4.851222
      px      :     1.722593
      py      :     1.532144
      dz2     :     0.007368  d :     0.027440
      dxz     :     0.009489
      dyz     :     0.000396
      dx2y2   :     0.009138
      dxy     :     0.001049
      f0      :     0.000030  f :     0.001921
      f+1     :     0.000784
      f-1     :     0.000265
      f+2     :     0.000304
      f-2     :     0.000045
      f+3     :     0.000155
      f-3     :     0.000339
 13 H s       :     0.637363  s :     0.637363
      pz      :     0.031756  p :     0.200405
      px      :     0.039358
      py      :     0.129291
 14 H s       :     0.674322  s :     0.674322
      pz      :     0.072413  p :     0.163885
      px      :     0.058880
      py      :     0.032592
 15 O s       :     3.453656  s :     3.453656
      pz      :     1.440582  p :     4.837847
      px      :     1.639989
      py      :     1.757275
      dz2     :     0.010421  d :     0.029424
      dxz     :     0.007809
      dyz     :     0.001758
      dx2y2   :     0.002048
      dxy     :     0.007387
      f0      :     0.000603  f :     0.002034
      f+1     :     0.000325
      f-1     :     0.000119
      f+2     :     0.000086
      f-2     :     0.000428
      f+3     :     0.000023
      f-3     :     0.000450
 16 H s       :     0.673504  s :     0.673504
      pz      :     0.037811  p :     0.162625
      px      :     0.068830
      py      :     0.055984
 17 H s       :     0.660142  s :     0.660142
      pz      :     0.101563  p :     0.178655
      px      :     0.036436
      py      :     0.040655


                      *****************************
                      * MAYER POPULATION ANALYSIS *
                      *****************************

  NA   - Mulliken gross atomic population
  ZA   - Total nuclear charge
  QA   - Mulliken gross atomic charge
  VA   - Mayer's total valence
  BVA  - Mayer's bonded valence
  FA   - Mayer's free valence

  ATOM       NA         ZA         QA         VA         BVA        FA
  0 O      8.7705     8.0000    -0.7705     1.7267     1.7267    -0.0000
  1 H      0.6154     1.0000     0.3846     0.8798     0.8798     0.0000
  2 H      0.5913     1.0000     0.4087     0.8679     0.8679     0.0000
  3 O      8.7642     8.0000    -0.7642     1.7390     1.7390    -0.0000
  4 H      0.6201     1.0000     0.3799     0.8843     0.8843    -0.0000
  5 H      0.6133     1.0000     0.3867     0.8792     0.8792    -0.0000
  6 O      8.7808     8.0000    -0.7808     1.6977     1.6977     0.0000
  7 H      0.6440     1.0000     0.3560     0.8915     0.8915    -0.0000
  8 H      0.5936     1.0000     0.4064     0.8693     0.8693     0.0000
  9 O      8.7562     8.0000    -0.7562     1.7339     1.7339    -0.0000
 10 H      0.6162     1.0000     0.3838     0.8763     0.8763    -0.0000
 11 H      0.6083     1.0000     0.3917     0.8765     0.8765    -0.0000
 12 O      8.8051     8.0000    -0.8051     1.6567     1.6567    -0.0000
 13 H      0.5753     1.0000     0.4247     0.8617     0.8617    -0.0000
 14 H      0.6369     1.0000     0.3631     0.8870     0.8870    -0.0000
 15 O      8.7641     8.0000    -0.7641     1.7141     1.7141    -0.0000
 16 H      0.6410     1.0000     0.3590     0.8885     0.8885    -0.0000
 17 H      0.6036     1.0000     0.3964     0.8743     0.8743    -0.0000

  Mayer bond orders larger than 0.100000
B(  0-O ,  1-H ) :   0.8497 B(  0-O ,  2-H ) :   0.8106 B(  3-O ,  4-H ) :   0.8504 
B(  3-O ,  5-H ) :   0.8444 B(  6-O ,  7-H ) :   0.8815 B(  6-O ,  8-H ) :   0.7962 
B(  9-O , 10-H ) :   0.8540 B(  9-O , 11-H ) :   0.8392 B( 12-O , 13-H ) :   0.7550 
B( 12-O , 14-H ) :   0.8764 B( 15-O , 16-H ) :   0.8786 B( 15-O , 17-H ) :   0.8162 


-------
TIMINGS
-------

Total SCF time: 0 days 0 hours 0 min 11 sec 

Total time                  ....      11.988 sec
Sum of individual times     ....      11.733 sec  ( 97.9%)

Fock matrix formation       ....      11.102 sec  ( 92.6%)
Diagonalization             ....       0.198 sec  (  1.7%)
Density matrix formation    ....       0.018 sec  (  0.2%)
Population analysis         ....       0.019 sec  (  0.2%)
Initial guess               ....       0.122 sec  (  1.0%)
Orbital Transformation      ....       0.000 sec  (  0.0%)
Orbital Orthonormalization  ....       0.000 sec  (  0.0%)
DIIS solution               ....       0.070 sec  (  0.6%)
SOSCF solution              ....       0.155 sec  (  1.3%)


           ************************************************************
           *        Program running with 8 parallel MPI-processes     *
           *              working on a common directory               *
           ************************************************************

------------------------------------------------------------------------------
                                ORCA  MP2 
------------------------------------------------------------------------------

Freezing NCore=12 chemical core electrons
MP2 will be done in the AO integral direct mode
The Q1-step will be done using symmetric double matrices
Dimension of the basis                    ...  258
Memory devoted for MP2                    ... 8000 MB   
Memory needed for all in one shot         ...  198 MB
Number of MOs that can be treated together...  120      
MP2 density construction                  ... relaxed
The MP2 gradient is requested => amplitudes will be stored on disk
Total number of MOs              ...   24
Number of MOs treated per batch  ...    3 
Number of batches necessary      ...    1 
OPERATORS   0/  0 PASS   0
-----------------------------------------------
 MP2 CORRELATION ENERGY   :     -1.558251190 Eh
-----------------------------------------------


---------------------
MP2 DENSITY FORMATION
---------------------

Completing the external part of the density      ... done
Storing the unrelaxed density                    ... done

Calculating G(D)                                 ... done
Completing the Lagrangian                        ... done
Solving the Z-vector equations                   ... 

------------------------------------------------------------------------------
                           ORCA CP-SCF CALCULATION
------------------------------------------------------------------------------

Input orbitals are from        ... 6h2o.temelso.etal.pr-orca.engrad-mp2.def2tzvp.gbw
Input Perturbation             ... 6h2o.temelso.etal.pr-orca.engrad-mp2.def2tzvp.pin.tmp
Wavefunction output            ... 6h2o.temelso.etal.pr-orca.engrad-mp2.def2tzvp.pout.tmp
Perturbation mode              ... Real perturbation (singlet)
Solver                         ... POPLE
Max. number of iterations      ... 128
Convergence tolerance          ... 1.000e-08
Integral handling              ... Direct
Number of perturbations        ... 1
Number of operators            ... 1
Orbital ranges used for CP-SCF:
 Operator 0:  Orbitals   0... 29  to  30...257
Variables per vector in CP-SCF ... 6840
Number of vectors sought       ... 1
     CP-SCF ITERATION   0: 
     CP-SCF ITERATION   1:      0.000791540411
     CP-SCF ITERATION   2:      0.000023235933
     CP-SCF ITERATION   3:      0.000000550541
     CP-SCF ITERATION   4:      0.000000090294
     CP-SCF ITERATION   5:      0.000000007165
                                                 ... done
Finalizing the relaxed density                   ... done
Transforming P to the AO basis                   ... done
Storing the relaxed density                      ... done

------------------------------------
ENERGY WEIGHTED DENSITY FINALIZATION
------------------------------------

Gathering the parts of the W-matrix              ...                                                      done
Forming the Z-density                            ... done
Transforming Z to the AO basis                   ... done
Calculating G(Z)                                 ... done
Finalizing the W-matrix                          ...                                                      done
Transforming W to the AO basis and storing       ... done

                *********************************************
                * UNRELAXED MP2 DENSITY POPULATION ANALYSIS *
                *********************************************

------------------------------------------------------------------------------
                           ORCA POPULATION ANALYSIS
------------------------------------------------------------------------------
Input electron density              ... 6h2o.temelso.etal.pr-orca.engrad-mp2.def2tzvp.pmp2ur
BaseName (.gbw .S,...)              ... 6h2o.temelso.etal.pr-orca.engrad-mp2.def2tzvp

                    ********************************
                    * MULLIKEN POPULATION ANALYSIS *
                    ********************************

-----------------------
MULLIKEN ATOMIC CHARGES
-----------------------
   0 O :   -0.762937
   1 H :    0.381606
   2 H :    0.404851
   3 O :   -0.757580
   4 H :    0.376709
   5 H :    0.383463
   6 O :   -0.774939
   7 H :    0.353691
   8 H :    0.402060
   9 O :   -0.749295
  10 H :    0.380969
  11 H :    0.388374
  12 O :   -0.798278
  13 H :    0.419649
  14 H :    0.360771
  15 O :   -0.758126
  16 H :    0.356655
  17 H :    0.392356
Sum of atomic charges:   -0.0000000

--------------------------------
MULLIKEN REDUCED ORBITAL CHARGES
--------------------------------
  0 O s       :     3.794269  s :     3.794269
      pz      :     1.533921  p :     4.912475
      px      :     1.454961
      py      :     1.923593
      dz2     :     0.018905  d :     0.052303
      dxz     :     0.006351
      dyz     :     0.006799
      dx2y2   :     0.013684
      dxy     :     0.006565
      f0      :     0.000789  f :     0.003890
      f+1     :     0.000600
      f-1     :     0.000408
      f+2     :     0.000420
      f-2     :     0.000367
      f+3     :     0.000868
      f-3     :     0.000438
  1 H s       :     0.571421  s :     0.571421
      pz      :     0.010452  p :     0.046973
      px      :     0.022378
      py      :     0.014144
  2 H s       :     0.543833  s :     0.543833
      pz      :     0.028115  p :     0.051317
      px      :     0.009804
      py      :     0.013398
  3 O s       :     3.800973  s :     3.800973
      pz      :     1.928997  p :     4.900308
      px      :     1.434657
      py      :     1.536655
      dz2     :     0.010536  d :     0.052339
      dxz     :     0.007507
      dyz     :     0.007079
      dx2y2   :     0.019281
      dxy     :     0.007935
      f0      :     0.000517  f :     0.003960
      f+1     :     0.000667
      f-1     :     0.000685
      f+2     :     0.000455
      f-2     :     0.000375
      f+3     :     0.000821
      f-3     :     0.000439
  4 H s       :     0.574995  s :     0.574995
      pz      :     0.015032  p :     0.048295
      px      :     0.022692
      py      :     0.010572
  5 H s       :     0.566000  s :     0.566000
      pz      :     0.014192  p :     0.050536
      px      :     0.011773
      py      :     0.024571
  6 O s       :     3.801414  s :     3.801414
      pz      :     1.930026  p :     4.919468
      px      :     1.458840
      py      :     1.530602
      dz2     :     0.009698  d :     0.050039
      dxz     :     0.006469
      dyz     :     0.007288
      dx2y2   :     0.020800
      dxy     :     0.005785
      f0      :     0.000532  f :     0.004017
      f+1     :     0.000745
      f-1     :     0.000633
      f+2     :     0.000456
      f-2     :     0.000382
      f+3     :     0.000679
      f-3     :     0.000590
  7 H s       :     0.599165  s :     0.599165
      pz      :     0.015706  p :     0.047144
      px      :     0.019721
      py      :     0.011717
  8 H s       :     0.543403  s :     0.543403
      pz      :     0.013968  p :     0.054537
      px      :     0.010130
      py      :     0.030439
  9 O s       :     3.796024  s :     3.796024
      pz      :     1.396684  p :     4.897181
      px      :     1.618114
      py      :     1.882383
      dz2     :     0.006213  d :     0.052136
      dxz     :     0.020269
      dyz     :     0.006667
      dx2y2   :     0.010525
      dxy     :     0.008462
      f0      :     0.000417  f :     0.003955
      f+1     :     0.000795
      f-1     :     0.000562
      f+2     :     0.000698
      f-2     :     0.000578
      f+3     :     0.000468
      f-3     :     0.000437
 10 H s       :     0.572328  s :     0.572328
      pz      :     0.017334  p :     0.046703
      px      :     0.014691
      py      :     0.014678
 11 H s       :     0.562456  s :     0.562456
      pz      :     0.015921  p :     0.049170
      px      :     0.019082
      py      :     0.014167
 12 O s       :     3.797664  s :     3.797664
      pz      :     1.621840  p :     4.947751
      px      :     1.766226
      py      :     1.559685
      dz2     :     0.011075  d :     0.048881
      dxz     :     0.011995
      dyz     :     0.006063
      dx2y2   :     0.013238
      dxy     :     0.006510
      f0      :     0.000415  f :     0.003982
      f+1     :     0.000921
      f-1     :     0.000502
      f+2     :     0.000568
      f-2     :     0.000453
      f+3     :     0.000504
      f-3     :     0.000619
 13 H s       :     0.522949  s :     0.522949
      pz      :     0.010366  p :     0.057402
      px      :     0.012694
      py      :     0.034341
 14 H s       :     0.592253  s :     0.592253
      pz      :     0.018337  p :     0.046975
      px      :     0.017109
      py      :     0.011530
 15 O s       :     3.799761  s :     3.799761
      pz      :     1.456370  p :     4.904046
      px      :     1.640989
      py      :     1.806687
      dz2     :     0.012918  d :     0.050287
      dxz     :     0.011562
      dyz     :     0.006496
      dx2y2   :     0.008024
      dxy     :     0.011288
      f0      :     0.000783  f :     0.004031
      f+1     :     0.000521
      f-1     :     0.000532
      f+2     :     0.000422
      f-2     :     0.000659
      f+3     :     0.000431
      f-3     :     0.000683
 16 H s       :     0.596354  s :     0.596354
      pz      :     0.012987  p :     0.046991
      px      :     0.017178
      py      :     0.016826
 17 H s       :     0.556167  s :     0.556167
      pz      :     0.027493  p :     0.051478
      px      :     0.010750
      py      :     0.013235


                     *******************************
                     * LOEWDIN POPULATION ANALYSIS *
                     *******************************

----------------------
LOEWDIN ATOMIC CHARGES
----------------------
   0 O :   -0.303185
   1 H :    0.160619
   2 H :    0.162565
   3 O :   -0.318535
   4 H :    0.155271
   5 H :    0.152630
   6 O :   -0.334960
   7 H :    0.159331
   8 H :    0.156254
   9 O :   -0.302586
  10 H :    0.161968
  11 H :    0.159604
  12 O :   -0.330981
  13 H :    0.159424
  14 H :    0.160457
  15 O :   -0.319205
  16 H :    0.162531
  17 H :    0.158798

-------------------------------
LOEWDIN REDUCED ORBITAL CHARGES
-------------------------------
  0 O s       :     3.451706  s :     3.451706
      pz      :     1.509212  p :     4.787946
      px      :     1.441324
      py      :     1.837411
      dz2     :     0.023200  d :     0.058730
      dxz     :     0.006080
      dyz     :     0.006354
      dx2y2   :     0.016751
      dxy     :     0.006345
      f0      :     0.001227  f :     0.004803
      f+1     :     0.000900
      f-1     :     0.000394
      f+2     :     0.000394
      f-2     :     0.000368
      f+3     :     0.001128
      f-3     :     0.000392
  1 H s       :     0.670564  s :     0.670564
      pz      :     0.031207  p :     0.168817
      px      :     0.092770
      py      :     0.044841
  2 H s       :     0.656723  s :     0.656723
      pz      :     0.108804  p :     0.180711
      px      :     0.028722
      py      :     0.043185
  3 O s       :     3.453218  s :     3.453218
      pz      :     1.847303  p :     4.801610
      px      :     1.426431
      py      :     1.527876
      dz2     :     0.012009  d :     0.058939
      dxz     :     0.007428
      dyz     :     0.006204
      dx2y2   :     0.024843
      dxy     :     0.008455
      f0      :     0.000462  f :     0.004769
      f+1     :     0.000730
      f-1     :     0.000761
      f+2     :     0.000515
      f-2     :     0.000367
      f+3     :     0.001238
      f-3     :     0.000696
  4 H s       :     0.673776  s :     0.673776
      pz      :     0.047455  p :     0.170953
      px      :     0.091984
      py      :     0.031514
  5 H s       :     0.671966  s :     0.671966
      pz      :     0.044844  p :     0.175405
      px      :     0.034303
      py      :     0.096258
  6 O s       :     3.453040  s :     3.453040
      pz      :     1.863019  p :     4.819580
      px      :     1.448081
      py      :     1.508479
      dz2     :     0.011375  d :     0.057573
      dxz     :     0.006297
      dyz     :     0.007019
      dx2y2   :     0.027184
      dxy     :     0.005698
      f0      :     0.000456  f :     0.004767
      f+1     :     0.000866
      f-1     :     0.000638
      f+2     :     0.000501
      f-2     :     0.000374
      f+3     :     0.001065
      f-3     :     0.000868
  7 H s       :     0.674596  s :     0.674596
      pz      :     0.046030  p :     0.166073
      px      :     0.087050
      py      :     0.032993
  8 H s       :     0.653178  s :     0.653178
      pz      :     0.044430  p :     0.190569
      px      :     0.030666
      py      :     0.115472
  9 O s       :     3.449693  s :     3.449693
      pz      :     1.376263  p :     4.789066
      px      :     1.607878
      py      :     1.804925
      dz2     :     0.007509  d :     0.058973
      dxz     :     0.025944
      dyz     :     0.007427
      dx2y2   :     0.009904
      dxy     :     0.008188
      f0      :     0.000438  f :     0.004854
      f+1     :     0.001186
      f-1     :     0.000568
      f+2     :     0.001044
      f-2     :     0.000684
      f+3     :     0.000478
      f-3     :     0.000454
 10 H s       :     0.670480  s :     0.670480
      pz      :     0.065159  p :     0.167552
      px      :     0.053827
      py      :     0.048566
 11 H s       :     0.667358  s :     0.667358
      pz      :     0.056453  p :     0.173037
      px      :     0.072230
      py      :     0.044355
 12 O s       :     3.450878  s :     3.450878
      pz      :     1.585506  p :     4.818726
      px      :     1.711088
      py      :     1.522132
      dz2     :     0.013265  d :     0.056662
      dxz     :     0.015641
      dyz     :     0.005858
      dx2y2   :     0.015215
      dxy     :     0.006683
      f0      :     0.000417  f :     0.004715
      f+1     :     0.001207
      f-1     :     0.000669
      f+2     :     0.000704
      f-2     :     0.000420
      f+3     :     0.000549
      f-3     :     0.000749
 13 H s       :     0.637946  s :     0.637946
      pz      :     0.032553  p :     0.202631
      px      :     0.040116
      py      :     0.129961
 14 H s       :     0.672569  s :     0.672569
      pz      :     0.073742  p :     0.166974
      px      :     0.059901
      py      :     0.033331
 15 O s       :     3.450038  s :     3.450038
      pz      :     1.431642  p :     4.806247
      px      :     1.629018
      py      :     1.745587
      dz2     :     0.016299  d :     0.058106
      dxz     :     0.013397
      dyz     :     0.007406
      dx2y2   :     0.007713
      dxy     :     0.013291
      f0      :     0.001036  f :     0.004814
      f+1     :     0.000738
      f-1     :     0.000506
      f+2     :     0.000462
      f-2     :     0.000828
      f+3     :     0.000397
      f-3     :     0.000847
 16 H s       :     0.671746  s :     0.671746
      pz      :     0.038603  p :     0.165724
      px      :     0.070182
      py      :     0.056939
 17 H s       :     0.659842  s :     0.659842
      pz      :     0.102615  p :     0.181360
      px      :     0.037339
      py      :     0.041405


                      *****************************
                      * MAYER POPULATION ANALYSIS *
                      *****************************

  NA   - Mulliken gross atomic population
  ZA   - Total nuclear charge
  QA   - Mulliken gross atomic charge
  VA   - Mayer's total valence
  BVA  - Mayer's bonded valence
  FA   - Mayer's free valence

  ATOM       NA         ZA         QA         VA         BVA        FA
  0 O      8.7629     8.0000    -0.7629     2.0424     1.6485     0.3938
  1 H      0.6184     1.0000     0.3816     0.8859     0.8407     0.0452
  2 H      0.5951     1.0000     0.4049     0.8746     0.8304     0.0442
  3 O      8.7576     8.0000    -0.7576     2.0531     1.6604     0.3928
  4 H      0.6233     1.0000     0.3767     0.8908     0.8450     0.0458
  5 H      0.6165     1.0000     0.3835     0.8856     0.8405     0.0451
  6 O      8.7749     8.0000    -0.7749     2.0156     1.6203     0.3952
  7 H      0.6463     1.0000     0.3537     0.8972     0.8508     0.0465
  8 H      0.5979     1.0000     0.4021     0.8766     0.8315     0.0451
  9 O      8.7493     8.0000    -0.7493     2.0470     1.6559     0.3912
 10 H      0.6190     1.0000     0.3810     0.8823     0.8374     0.0448
 11 H      0.6116     1.0000     0.3884     0.8829     0.8380     0.0448
 12 O      8.7983     8.0000    -0.7983     1.9801     1.5812     0.3989
 13 H      0.5804     1.0000     0.4196     0.8693     0.8247     0.0447
 14 H      0.6392     1.0000     0.3608     0.8926     0.8466     0.0460
 15 O      8.7581     8.0000    -0.7581     2.0291     1.6363     0.3929
 16 H      0.6433     1.0000     0.3567     0.8942     0.8480     0.0462
 17 H      0.6076     1.0000     0.3924     0.8815     0.8359     0.0456

  Mayer bond orders larger than 0.100000
B(  0-O ,  1-H ) :   0.8117 B(  0-O ,  2-H ) :   0.7747 B(  3-O ,  4-H ) :   0.8122 
B(  3-O ,  5-H ) :   0.8067 B(  6-O ,  7-H ) :   0.8415 B(  6-O ,  8-H ) :   0.7604 
B(  9-O , 10-H ) :   0.8159 B(  9-O , 11-H ) :   0.8019 B( 12-O , 13-H ) :   0.7213 
B( 12-O , 14-H ) :   0.8368 B( 15-O , 16-H ) :   0.8388 B( 15-O , 17-H ) :   0.7795 



                *******************************************
                * RELAXED MP2 DENSITY POPULATION ANALYSIS *
                *******************************************

------------------------------------------------------------------------------
                           ORCA POPULATION ANALYSIS
------------------------------------------------------------------------------
Input electron density              ... 6h2o.temelso.etal.pr-orca.engrad-mp2.def2tzvp.pmp2re
BaseName (.gbw .S,...)              ... 6h2o.temelso.etal.pr-orca.engrad-mp2.def2tzvp

                    ********************************
                    * MULLIKEN POPULATION ANALYSIS *
                    ********************************

-----------------------
MULLIKEN ATOMIC CHARGES
-----------------------
   0 O :   -0.727136
   1 H :    0.367820
   2 H :    0.385294
   3 O :   -0.728644
   4 H :    0.362467
   5 H :    0.367989
   6 O :   -0.747738
   7 H :    0.345510
   8 H :    0.379693
   9 O :   -0.717703
  10 H :    0.368952
  11 H :    0.372450
  12 O :   -0.764528
  13 H :    0.392638
  14 H :    0.352878
  15 O :   -0.731538
  16 H :    0.349046
  17 H :    0.372548
Sum of atomic charges:   -0.0000000

--------------------------------
MULLIKEN REDUCED ORBITAL CHARGES
--------------------------------
  0 O s       :     3.791158  s :     3.791158
      pz      :     1.527092  p :     4.881710
      px      :     1.446860
      py      :     1.907759
      dz2     :     0.017511  d :     0.050450
      dxz     :     0.006418
      dyz     :     0.006924
      dx2y2   :     0.012923
      dxy     :     0.006673
      f0      :     0.000760  f :     0.003817
      f+1     :     0.000582
      f-1     :     0.000408
      f+2     :     0.000421
      f-2     :     0.000367
      f+3     :     0.000842
      f-3     :     0.000437
  1 H s       :     0.584526  s :     0.584526
      pz      :     0.011084  p :     0.047654
      px      :     0.021525
      py      :     0.015046
  2 H s       :     0.563066  s :     0.563066
      pz      :     0.027151  p :     0.051640
      px      :     0.010298
      py      :     0.014191
  3 O s       :     3.799837  s :     3.799837
      pz      :     1.917049  p :     4.874520
      px      :     1.427496
      py      :     1.529975
      dz2     :     0.010332  d :     0.050401
      dxz     :     0.007446
      dyz     :     0.007216
      dx2y2   :     0.017625
      dxy     :     0.007782
      f0      :     0.000513  f :     0.003887
      f+1     :     0.000657
      f-1     :     0.000672
      f+2     :     0.000450
      f-2     :     0.000375
      f+3     :     0.000791
      f-3     :     0.000430
  4 H s       :     0.588563  s :     0.588563
      pz      :     0.015826  p :     0.048970
      px      :     0.021889
      py      :     0.011255
  5 H s       :     0.580884  s :     0.580884
      pz      :     0.015103  p :     0.051127
      px      :     0.012239
      py      :     0.023786
  6 O s       :     3.804342  s :     3.804342
      pz      :     1.921016  p :     4.891402
      px      :     1.449749
      py      :     1.520637
      dz2     :     0.009365  d :     0.048049
      dxz     :     0.006592
      dyz     :     0.007262
      dx2y2   :     0.018923
      dxy     :     0.005906
      f0      :     0.000530  f :     0.003945
      f+1     :     0.000728
      f-1     :     0.000625
      f+2     :     0.000453
      f-2     :     0.000382
      f+3     :     0.000655
      f-3     :     0.000573
  7 H s       :     0.606581  s :     0.606581
      pz      :     0.016732  p :     0.047908
      px      :     0.018746
      py      :     0.012430
  8 H s       :     0.565475  s :     0.565475
      pz      :     0.014725  p :     0.054832
      px      :     0.010727
      py      :     0.029380
  9 O s       :     3.794426  s :     3.794426
      pz      :     1.390537  p :     4.869247
      px      :     1.609376
      py      :     1.869334
      dz2     :     0.006092  d :     0.050152
      dxz     :     0.018500
      dyz     :     0.006546
      dx2y2   :     0.010503
      dxy     :     0.008511
      f0      :     0.000415  f :     0.003878
      f+1     :     0.000764
      f-1     :     0.000557
      f+2     :     0.000676
      f-2     :     0.000566
      f+3     :     0.000465
      f-3     :     0.000435
 10 H s       :     0.583611  s :     0.583611
      pz      :     0.016918  p :     0.047437
      px      :     0.015007
      py      :     0.015511
 11 H s       :     0.577843  s :     0.577843
      pz      :     0.015832  p :     0.049707
      px      :     0.018893
      py      :     0.014982
 12 O s       :     3.798774  s :     3.798774
      pz      :     1.610722  p :     4.914741
      px      :     1.756720
      py      :     1.547299
      dz2     :     0.010590  d :     0.047098
      dxz     :     0.011196
      dyz     :     0.006173
      dx2y2   :     0.012586
      dxy     :     0.006551
      f0      :     0.000416  f :     0.003915
      f+1     :     0.000891
      f-1     :     0.000493
      f+2     :     0.000558
      f-2     :     0.000453
      f+3     :     0.000499
      f-3     :     0.000606
 13 H s       :     0.549894  s :     0.549894
      pz      :     0.010966  p :     0.057469
      px      :     0.013324
      py      :     0.033179
 14 H s       :     0.599374  s :     0.599374
      pz      :     0.018063  p :     0.047748
      px      :     0.017417
      py      :     0.012268
 15 O s       :     3.803554  s :     3.803554
      pz      :     1.448801  p :     4.875792
      px      :     1.628633
      py      :     1.798358
      dz2     :     0.012043  d :     0.048235
      dxz     :     0.010987
      dyz     :     0.006407
      dx2y2   :     0.008057
      dxy     :     0.010740
      f0      :     0.000758  f :     0.003957
      f+1     :     0.000509
      f-1     :     0.000529
      f+2     :     0.000420
      f-2     :     0.000644
      f+3     :     0.000431
      f-3     :     0.000666
 16 H s       :     0.603217  s :     0.603217
      pz      :     0.013383  p :     0.047737
      px      :     0.016997
      py      :     0.017358
 17 H s       :     0.575560  s :     0.575560
      pz      :     0.026497  p :     0.051892
      px      :     0.011428
      py      :     0.013966


                     *******************************
                     * LOEWDIN POPULATION ANALYSIS *
                     *******************************

----------------------
LOEWDIN ATOMIC CHARGES
----------------------
   0 O :   -0.293972
   1 H :    0.157692
   2 H :    0.155839
   3 O :   -0.311679
   4 H :    0.151874
   5 H :    0.148620
   6 O :   -0.331070
   7 H :    0.161112
   8 H :    0.149184
   9 O :   -0.294727
  10 H :    0.159932
  11 H :    0.155407
  12 O :   -0.323937
  13 H :    0.150520
  14 H :    0.162370
  15 O :   -0.314908
  16 H :    0.164521
  17 H :    0.153220

-------------------------------
LOEWDIN REDUCED ORBITAL CHARGES
-------------------------------
  0 O s       :     3.451923  s :     3.451923
      pz      :     1.510729  p :     4.779011
      px      :     1.443643
      py      :     1.824639
      dz2     :     0.022752  d :     0.058209
      dxz     :     0.006050
      dyz     :     0.006468
      dx2y2   :     0.016485
      dxy     :     0.006453
      f0      :     0.001237  f :     0.004829
      f+1     :     0.000904
      f-1     :     0.000395
      f+2     :     0.000396
      f-2     :     0.000369
      f+3     :     0.001137
      f-3     :     0.000392
  1 H s       :     0.673290  s :     0.673290
      pz      :     0.031623  p :     0.169018
      px      :     0.091733
      py      :     0.045662
  2 H s       :     0.662718  s :     0.662718
      pz      :     0.108566  p :     0.181443
      px      :     0.028861
      py      :     0.044015
  3 O s       :     3.454021  s :     3.454021
      pz      :     1.836486  p :     4.794771
      px      :     1.429405
      py      :     1.528880
      dz2     :     0.012044  d :     0.058101
      dxz     :     0.007416
      dyz     :     0.006307
      dx2y2   :     0.024019
      dxy     :     0.008314
      f0      :     0.000465  f :     0.004787
      f+1     :     0.000735
      f-1     :     0.000767
      f+2     :     0.000516
      f-2     :     0.000367
      f+3     :     0.001246
      f-3     :     0.000691
  4 H s       :     0.676701  s :     0.676701
      pz      :     0.048371  p :     0.171425
      px      :     0.091107
      py      :     0.031948
  5 H s       :     0.675558  s :     0.675558
      pz      :     0.045755  p :     0.175822
      px      :     0.034408
      py      :     0.095659
  6 O s       :     3.454607  s :     3.454607
      pz      :     1.856210  p :     4.814739
      px      :     1.449054
      py      :     1.509474
      dz2     :     0.011360  d :     0.056922
      dxz     :     0.006402
      dyz     :     0.007042
      dx2y2   :     0.026410
      dxy     :     0.005708
      f0      :     0.000459  f :     0.004802
      f+1     :     0.000873
      f-1     :     0.000646
      f+2     :     0.000505
      f-2     :     0.000375
      f+3     :     0.001070
      f-3     :     0.000875
  7 H s       :     0.672882  s :     0.672882
      pz      :     0.046731  p :     0.166005
      px      :     0.085967
      py      :     0.033308
  8 H s       :     0.659883  s :     0.659883
      pz      :     0.045142  p :     0.190933
      px      :     0.031033
      py      :     0.114758
  9 O s       :     3.449946  s :     3.449946
      pz      :     1.380708  p :     4.781746
      px      :     1.606179
      py      :     1.794858
      dz2     :     0.007347  d :     0.058162
      dxz     :     0.025102
      dyz     :     0.007368
      dx2y2   :     0.010066
      dxy     :     0.008278
      f0      :     0.000437  f :     0.004872
      f+1     :     0.001192
      f-1     :     0.000573
      f+2     :     0.001046
      f-2     :     0.000688
      f+3     :     0.000481
      f-3     :     0.000455
 10 H s       :     0.672317  s :     0.672317
      pz      :     0.064194  p :     0.167750
      px      :     0.054255
      py      :     0.049301
 11 H s       :     0.671184  s :     0.671184
      pz      :     0.056028  p :     0.173409
      px      :     0.072270
      py      :     0.045112
 12 O s       :     3.452010  s :     3.452010
      pz      :     1.582114  p :     4.810861
      px      :     1.706586
      py      :     1.522161
      dz2     :     0.013139  d :     0.056306
      dxz     :     0.015311
      dyz     :     0.005916
      dx2y2   :     0.015197
      dxy     :     0.006743
      f0      :     0.000419  f :     0.004761
      f+1     :     0.001216
      f-1     :     0.000678
      f+2     :     0.000706
      f-2     :     0.000422
      f+3     :     0.000557
      f-3     :     0.000761
 13 H s       :     0.646657  s :     0.646657
      pz      :     0.033002  p :     0.202822
      px      :     0.040690
      py      :     0.129131
 14 H s       :     0.670813  s :     0.670813
      pz      :     0.073194  p :     0.166817
      px      :     0.059932
      py      :     0.033691
 15 O s       :     3.451627  s :     3.451627
      pz      :     1.434336  p :     4.801140
      px      :     1.626423
      py      :     1.740381
      dz2     :     0.015946  d :     0.057297
      dxz     :     0.013108
      dyz     :     0.007349
      dx2y2   :     0.007811
      dxy     :     0.013083
      f0      :     0.001051  f :     0.004843
      f+1     :     0.000736
      f-1     :     0.000511
      f+2     :     0.000462
      f-2     :     0.000834
      f+3     :     0.000398
      f-3     :     0.000851
 16 H s       :     0.669813  s :     0.669813
      pz      :     0.038448  p :     0.165666
      px      :     0.070024
      py      :     0.057194
 17 H s       :     0.665153  s :     0.665153
      pz      :     0.101725  p :     0.181627
      px      :     0.037866
      py      :     0.042037


                      *****************************
                      * MAYER POPULATION ANALYSIS *
                      *****************************

  NA   - Mulliken gross atomic population
  ZA   - Total nuclear charge
  QA   - Mulliken gross atomic charge
  VA   - Mayer's total valence
  BVA  - Mayer's bonded valence
  FA   - Mayer's free valence

  ATOM       NA         ZA         QA         VA         BVA        FA
  0 O      8.7271     8.0000    -0.7271     2.0901     1.7028     0.3873
  1 H      0.6322     1.0000     0.3678     0.9043     0.8593     0.0450
  2 H      0.6147     1.0000     0.3853     0.9016     0.8582     0.0434
  3 O      8.7286     8.0000    -0.7286     2.0935     1.7071     0.3863
  4 H      0.6375     1.0000     0.3625     0.9103     0.8650     0.0454
  5 H      0.6320     1.0000     0.3680     0.9075     0.8628     0.0447
  6 O      8.7477     8.0000    -0.7477     2.0482     1.6590     0.3892
  7 H      0.6545     1.0000     0.3455     0.9032     0.8567     0.0465
  8 H      0.6203     1.0000     0.3797     0.9038     0.8596     0.0442
  9 O      8.7177     8.0000    -0.7177     2.0874     1.7025     0.3849
 10 H      0.6310     1.0000     0.3690     0.8977     0.8531     0.0447
 11 H      0.6276     1.0000     0.3724     0.9051     0.8607     0.0444
 12 O      8.7645     8.0000    -0.7645     2.0204     1.6278     0.3926
 13 H      0.6074     1.0000     0.3926     0.9012     0.8577     0.0435
 14 H      0.6471     1.0000     0.3529     0.8987     0.8526     0.0461
 15 O      8.7315     8.0000    -0.7315     2.0616     1.6747     0.3868
 16 H      0.6510     1.0000     0.3490     0.8998     0.8535     0.0463
 17 H      0.6275     1.0000     0.3725     0.9050     0.8602     0.0448

  Mayer bond orders larger than 0.100000
B(  0-O ,  1-H ) :   0.8156 B(  0-O ,  2-H ) :   0.7768 B(  0-O , 13-H ) :   0.1306 
B(  3-O ,  4-H ) :   0.8152 B(  3-O ,  5-H ) :   0.8098 B(  6-O ,  7-H ) :   0.8446 
B(  6-O ,  8-H ) :   0.7588 B(  9-O , 10-H ) :   0.8198 B(  9-O , 11-H ) :   0.8055 
B( 12-O , 13-H ) :   0.7185 B( 12-O , 14-H ) :   0.8398 B( 15-O , 16-H ) :   0.8417 
B( 15-O , 17-H ) :   0.7786 


----------------------------------
MP2 DERIVATIVE INTEGRAL GENERATION
----------------------------------


Input Wavefunction Amplitudes       ... 6h2o.temelso.etal.pr-orca.engrad-mp2.def2tzvp.mp2tsaa.tmp
Input Correlated Electron Density   ... 6h2o.temelso.etal.pr-orca.engrad-mp2.def2tzvp.pmp2re
Input Energy Weighted Density       ... 6h2o.temelso.etal.pr-orca.engrad-mp2.def2tzvp.wmp2.tmp
Input SCF Electron Density          ... 6h2o.temelso.etal.pr-orca.engrad-mp2.def2tzvp.scfp

One-Electron Terms    ...
                        ... One-Electron Terms done
Prescreening matrices              ... done

Batch handling in the gradient evaluation:
Memory available                      ... 8000.0 MB
Memory per occupied orbital in Q2     ...   12.2 MB
Memory per occupied orbital in Q3     ...    0.1 MB
Total memory requirement per |i>      ...   12.3 MB
Max. Number of orbitals possible      ...    651
Number of orbitals treated per batch  ...     24
Number of batches to be done          ...      1
Batch   0: i=    6 ...    29

---------------------------------------
MP2 TOTAL ENERGY:     -457.961330732 Eh
---------------------------------------

The final MP2 gradient
  0:  -0.00242153  -0.00241535   0.00245935
  1:   0.00173972   0.00069055  -0.00058127
  2:   0.00056211   0.00133634  -0.00129152
  3:  -0.00264024  -0.00386929  -0.00233286
  4:   0.00196840   0.00139538   0.00098795
  5:   0.00034107   0.00208097   0.00106873
  6:  -0.00169447  -0.00268196  -0.00007163
  7:   0.00238770   0.00052118   0.00003047
  8:  -0.00008938   0.00157408  -0.00024348
  9:   0.00404905   0.00087207   0.00115102
 10:  -0.00158221  -0.00006787  -0.00148177
 11:  -0.00192078  -0.00074108   0.00046262
 12:   0.00102232   0.00182760  -0.00122025
 13:  -0.00006186  -0.00043313   0.00018355
 14:  -0.00126729  -0.00054483   0.00164173
 15:   0.00262471  -0.00076630  -0.00217072
 16:  -0.00214982   0.00115355  -0.00013497
 17:  -0.00086750   0.00006809   0.00154306

-----------------------------------
NORM OF THE MP2 GRADIENT:  0.011973
-----------------------------------

-------------------------   --------------------
FINAL SINGLE POINT ENERGY      -457.961330731827
-------------------------   --------------------


                            ***************************************
                            *     ORCA property calculations      *
                            ***************************************

                                    ---------------------
                                    Active property flags
                                    ---------------------
   (+) Dipole Moment


------------------------------------------------------------------------------
                       ORCA ELECTRIC PROPERTIES CALCULATION
------------------------------------------------------------------------------

Dipole Moment Calculation                       ... on
Quadrupole Moment Calculation                   ... off
Polarizability Calculation                      ... off
GBWName                                         ... 6h2o.temelso.etal.pr-orca.engrad-mp2.def2tzvp.gbw
Electron density file                           ... 6h2o.temelso.etal.pr-orca.engrad-mp2.def2tzvp.scfp
The origin for moment calculation is the CENTER OF MASS  = ( 0.963444,  3.308547 -1.954702)

-------------
DIPOLE MOMENT
-------------
                                X             Y             Z
Electronic contribution:     -0.00787      -0.11881      -0.00365
Nuclear contribution   :     -0.24700       1.17799       0.38599
                        -----------------------------------------
Total Dipole Moment    :     -0.25487       1.05918       0.38234
                        -----------------------------------------
Magnitude (a.u.)       :      1.15456
Magnitude (Debye)      :      2.93466



--------------------
Rotational spectrum 
--------------------
 
Rotational constants in cm-1:     0.056674     0.047190     0.045326 
Rotational constants in MHz :  1699.029642  1414.734856  1358.847881 

 Dipole components along the rotational axes: 
x,y,z [a.u.] :    -1.072837     0.393351    -0.165255 
x,y,z [Debye]:    -2.726935     0.999820    -0.420044 

 

                         *** MP2 UNRELAXED DENSITY ***

------------------------------------------------------------------------------
                       ORCA ELECTRIC PROPERTIES CALCULATION
------------------------------------------------------------------------------

Dipole Moment Calculation                       ... on
Quadrupole Moment Calculation                   ... off
Polarizability Calculation                      ... off
GBWName                                         ... 6h2o.temelso.etal.pr-orca.engrad-mp2.def2tzvp.gbw
Electron density file                           ... 6h2o.temelso.etal.pr-orca.engrad-mp2.def2tzvp.pmp2ur
The origin for moment calculation is the CENTER OF MASS  = ( 0.963444,  3.308547 -1.954702)

-------------
DIPOLE MOMENT
-------------
                                X             Y             Z
Electronic contribution:     -0.00545      -0.13049      -0.00771
Nuclear contribution   :     -0.24700       1.17799       0.38599
                        -----------------------------------------
Total Dipole Moment    :     -0.25245       1.04750       0.37828
                        -----------------------------------------
Magnitude (a.u.)       :      1.14197
Magnitude (Debye)      :      2.90265



--------------------
Rotational spectrum 
--------------------
 
Rotational constants in cm-1:     0.056674     0.047190     0.045326 
Rotational constants in MHz :  1699.029642  1414.734856  1358.847881 

 Dipole components along the rotational axes: 
x,y,z [a.u.] :    -1.061232     0.388720    -0.163632 
x,y,z [Debye]:    -2.697438     0.988047    -0.415919 

 

                           *** MP2 RELAXED DENSITY ***

------------------------------------------------------------------------------
                       ORCA ELECTRIC PROPERTIES CALCULATION
------------------------------------------------------------------------------

Dipole Moment Calculation                       ... on
Quadrupole Moment Calculation                   ... off
Polarizability Calculation                      ... off
GBWName                                         ... 6h2o.temelso.etal.pr-orca.engrad-mp2.def2tzvp.gbw
Electron density file                           ... 6h2o.temelso.etal.pr-orca.engrad-mp2.def2tzvp.pmp2re
The origin for moment calculation is the CENTER OF MASS  = ( 0.963444,  3.308547 -1.954702)

-------------
DIPOLE MOMENT
-------------
                                X             Y             Z
Electronic contribution:     -0.00173      -0.13987      -0.01516
Nuclear contribution   :     -0.24700       1.17799       0.38599
                        -----------------------------------------
Total Dipole Moment    :     -0.24873       1.03812       0.37083
                        -----------------------------------------
Magnitude (a.u.)       :      1.13008
Magnitude (Debye)      :      2.87242



--------------------
Rotational spectrum 
--------------------
 
Rotational constants in cm-1:     0.056674     0.047190     0.045326 
Rotational constants in MHz :  1699.029642  1414.734856  1358.847881 

 Dipole components along the rotational axes: 
x,y,z [a.u.] :    -1.050438     0.385573    -0.158059 
x,y,z [Debye]:    -2.670002     0.980050    -0.401754 

 

Timings for individual modules:

Sum of individual times         ...       80.993 sec (=   1.350 min)
GTO integral calculation        ...        1.143 sec (=   0.019 min)   1.4 %
SCF iterations                  ...       12.621 sec (=   0.210 min)  15.6 %
MP2 module                      ...       67.229 sec (=   1.120 min)  83.0 %
                             ****ORCA TERMINATED NORMALLY****
TOTAL RUN TIME: 0 days 0 hours 1 minutes 29 seconds 534 msec
