10
Energy:   -253.20676010
O   -0.67923493   0.67641755  -1.81134959
H    0.25976571   0.85758756  -1.85242356
H   -0.87905105   0.65628538  -0.87545426
O    0.20476992  -1.88129075   0.48571744
H    0.45181474  -1.20494466   1.11639697
H   -0.27614820  -1.41053869  -0.19497493
C    0.29091019   1.12259689   1.27052510
O    1.15606189   1.36147615   0.23543688
O    0.80126951   0.13702079   2.07381328
O   -0.92037870   0.72280577   0.76979914
