10
Energy:   -253.26883635
O    1.31900909  -1.31022578  -0.34740487
H    0.36574852  -1.35887287  -0.41923518
H    1.47646751  -0.61195656   0.28809399
O   -1.47011120   0.14714665  -1.21221152
H   -0.90014100   0.87178987  -1.46961787
H   -1.27212043   0.00311478  -0.28685412
C    0.08522522   0.92434917   1.52889012
O   -0.16478017   1.92972056   0.63240585
O    1.40777021   0.57268510   1.46327069
O   -0.69240163  -0.16215653   1.22461713
