10
Energy:   -258.64071507
O   -1.51427416  -0.71866872   0.54427761
H   -1.24874160   0.17545428   0.32917679
H   -0.69499388  -1.21306154   0.56851442
O   -0.18644547   1.67098048  -0.55502138
H    0.46195191   1.36391354   0.07863672
H   -0.27685546   0.94775198  -1.17550380
C    1.56567195  -0.87126370   0.04421252
O    1.09962073  -0.61652305  -1.21866588
O    0.82279437  -1.87297155   0.61149823
O    1.46169300   0.26279648   0.80636479
