10
Energy:   -254.11581294
O    1.68777465   0.49903038   0.48265358
H    0.96432972  -0.09902766   0.67023255
H    1.31635925   1.37210991   0.60920228
O   -0.19831098  -0.47067886  -1.74790175
H   -0.95238762  -0.35575623  -1.16963446
H    0.54294685  -0.59163901  -1.15449016
C   -1.36394239  -0.19865144   1.11743414
O   -0.91577855   1.08371358   1.29533156
O   -0.29262084  -1.04239067   0.98524853
O   -2.13603747  -0.25949471  -0.01302925
