10
Energy:   -253.85840748
O   -1.63010979  -0.80698967   0.20272506
H   -1.45925026  -0.53605346   1.10474082
H   -1.20302081  -0.13894291  -0.33350286
O    1.30894318  -1.16619168  -0.15354736
H    1.53516386  -0.23849079  -0.08701078
H    0.37579117  -1.17097197  -0.36670530
C    0.29424598   1.77904117  -0.17837283
O   -0.24571246   1.45974942   1.03959927
O   -0.28534043   1.00757730  -1.15100939
O    1.64440728   1.54610786  -0.15415027
