10
Energy:   -253.33454090
O   -0.79462428   1.37207074   1.34210045
H   -0.99647157   0.87681658   0.54824100
H   -0.38451655   0.73358168   1.92551731
O    1.65522188   0.21029940  -1.15440583
H    1.02392037   0.89857496  -0.94472272
H    1.16483085  -0.60507619  -1.04994945
C   -0.87709156  -1.42341599  -0.27692100
O   -0.60372530  -1.41752815   1.06553742
O    0.20066295  -1.92231225  -0.96003630
O   -1.13187405  -0.14397775  -0.69632996
