
                                 *****************
                                 * O   R   C   A *
                                 *****************

           --- An Ab Initio, DFT and Semiempirical electronic structure package ---

                  #######################################################
                  #                        -***-                        #
                  #          Department of theory and spectroscopy      #
                  #               Directorship: Frank Neese             #
                  #        Max Planck Institute fuer Kohlenforschung    #
                  #                Kaiser Wilhelm Platz 1               #
                  #                 D-45470 Muelheim/Ruhr               #
                  #                      Germany                        #
                  #                                                     #
                  #                  All rights reserved                #
                  #                        -***-                        #
                  #######################################################


                         Program Version 4.2.0 -  RELEASE  -


 With contributions from (in alphabetic order):
   Daniel Aravena         : Magnetic Suceptibility
   Michael Atanasov       : Ab Initio Ligand Field Theory (pilot matlab implementation)
   Alexander A. Auer      : GIAO ZORA, VPT2
   Ute Becker             : Parallelization
   Giovanni Bistoni       : ED, misc. LED, open-shell LED, HFLED
   Martin Brehm           : Molecular dynamics
   Dmytro Bykov           : SCF Hessian
   Vijay G. Chilkuri      : MRCI spin determinant printing, contributions to CSF-ICE
   Dipayan Datta          : RHF DLPNO-CCSD density
   Achintya Kumar Dutta   : EOM-CC, STEOM-CC
   Dmitry Ganyushin       : Spin-Orbit,Spin-Spin,Magnetic field MRCI
   Miquel Garcia          : C-PCM Hessian, Gaussian charge scheme
   Yang Guo               : DLPNO-NEVPT2, CIM, IAO-localization
   Andreas Hansen         : Spin unrestricted coupled pair/coupled cluster methods
   Benjamin Helmich-Paris : CASSCF linear response (MC-RPA)
   Lee Huntington         : MR-EOM, pCC
   Robert Izsak           : Overlap fitted RIJCOSX, COSX-SCS-MP3, EOM
   Christian Kollmar      : KDIIS, OOCD, Brueckner-CCSD(T), CCSD density
   Simone Kossmann        : Meta GGA functionals, TD-DFT gradient, OOMP2, MP2 Hessian
   Martin Krupicka        : AUTO-CI
   Lucas Lang             : DCDCAS
   Dagmar Lenk            : GEPOL surface, SMD
   Dimitrios Liakos       : Extrapolation schemes; Compound Job, initial MDCI parallelization
   Dimitrios Manganas     : Further ROCIS development; embedding schemes
   Dimitrios Pantazis     : SARC Basis sets
   Taras Petrenko         : DFT Hessian,TD-DFT gradient, ASA, ECA, R-Raman, ABS, FL, XAS/XES, NRVS
   Peter Pinski           : DLPNO-MP2, DLPNO-MP2 Gradient
   Christoph Reimann      : Effective Core Potentials
   Marius Retegan         : Local ZFS, SOC
   Christoph Riplinger    : Optimizer, TS searches, QM/MM, DLPNO-CCSD(T), (RO)-DLPNO pert. Triples
   Tobias Risthaus        : Range-separated hybrids, TD-DFT gradient, RPA, STAB
   Michael Roemelt        : Original ROCIS implementation
   Masaaki Saitow         : Open-shell DLPNO-CCSD energy and density
   Barbara Sandhoefer     : DKH picture change effects
   Avijit Sen             : IP-ROCIS
   Kantharuban Sivalingam : CASSCF convergence, NEVPT2, FIC-MRCI
   Bernardo de Souza      : ESD, SOC TD-DFT
   Georgi Stoychev        : AutoAux, RI-MP2 NMR
   Willem Van den Heuvel  : Paramagnetic NMR
   Boris Wezisla          : Elementary symmetry handling
   Frank Wennmohs         : Technical directorship


 We gratefully acknowledge several colleagues who have allowed us to
 interface, adapt or use parts of their codes:
   Stefan Grimme, W. Hujo, H. Kruse,             : VdW corrections, initial TS optimization,
                  C. Bannwarth                     DFT functionals, gCP, sTDA/sTD-DF
   Ed Valeev, F. Pavosevic, A. Kumar             : LibInt (2-el integral package), F12 methods
   Garnet Chan, S. Sharma, J. Yang, R. Olivares  : DMRG
   Ulf Ekstrom                                   : XCFun DFT Library
   Mihaly Kallay                                 : mrcc  (arbitrary order and MRCC methods)
   Andreas Klamt, Michael Diedenhofen            : otool_cosmo (COSMO solvation model)
   Jiri Pittner, Ondrej Demel                    : Mk-CCSD
   Frank Weinhold                                : gennbo (NPA and NBO analysis)
   Christopher J. Cramer and Donald G. Truhlar   : smd solvation model
   Lars Goerigk                                  : TD-DFT with DH, B97 family of functionals
   V. Asgeirsson, H. Jonsson                     : NEB implementation
   FAccTs GmbH                                   : IRC, NEB, NEB-TS, Multilevel, MM, QM/MM, CI optimization
   S Lehtola, MJT Oliveira, MAL Marques          : LibXC Library


 Your calculation uses the libint2 library for the computation of 2-el integrals
 For citations please refer to: http://libint.valeyev.net

 Your ORCA version has been built with support for libXC version: 4.2.3
 For citations please refer to: https://tddft.org/programs/libxc/

 This ORCA versions uses:
   CBLAS   interface :  Fast vector & matrix operations
   LAPACKE interface :  Fast linear algebra routines
   SCALAPACK package :  Parallel linear algebra routines


----- Orbital basis set information -----
Your calculation utilizes the basis: def2-TZVP
   F. Weigend and R. Ahlrichs, Phys. Chem. Chem. Phys. 7, 3297 (2005).

================================================================================
                                        WARNINGS
                       Please study these warnings very carefully!
================================================================================


WARNING: The frozen-core approximation for MP2-gradient calculations is turned on by default.

INFO   : the flag for use of LIBINT has been found!

================================================================================
                                       INPUT FILE
================================================================================
NAME = 12meoh.boyd.etal.mol2,4,5-orca.engrad-mp2.def2tzvp.frozencore.inp
|  1> # 12meoh.boyd.etal.mol2,4,5
|  2> ! MP2 def2-TZVP EnGrad TightSCF
|  3> 
|  4> %pal
|  5>     nprocs 6
|  6> end
|  7> 
|  8> %maxcore 8000
|  9> 
| 10> %scf
| 11>     ConvForced true
| 12> end
| 13> 
| 14> *xyz 0 1
| 15> O  -3.839777402   2.233595098   0.660436763
| 16> H  -2.958345897   1.907036203   0.973588449
| 17> C  -3.600368059   3.168790682  -0.390480452
| 18> H  -4.551709193   3.344148967  -0.901254863
| 19> H  -2.868237594   2.789240199  -1.113617525
| 20> H  -3.243594915   4.128998607   0.009549480
| 21> O  -1.358578914   1.232360421   1.189721000
| 22> H  -1.058250183   1.216459361   0.238591307
| 23> C  -0.389763452   1.957872567   1.943072362
| 24> H  -0.747220771   2.012806578   2.975200343
| 25> H  -0.260410585   2.982763209   1.565366540
| 26> H   0.585220638   1.453754179   1.934070793
| 27> O  -0.662721750   1.449094618  -1.383082065
| 28> H   0.064188300   2.119867608  -1.465650660
| 29> C  -0.353319239   0.341218776  -2.229326771
| 30> H  -1.072358530  -0.454743281  -2.019906495
| 31> H   0.657636746  -0.044472139  -2.042736771
| 32> H  -0.434616607   0.624733901  -3.287793021
| 33> *
| 34> 
| 35>                          ****END OF INPUT****
================================================================================

                     *******************************
                     * Energy+Gradient Calculation *
                     *******************************

---------------------------------
CARTESIAN COORDINATES (ANGSTROEM)
---------------------------------
  O     -3.839777    2.233595    0.660437
  H     -2.958346    1.907036    0.973588
  C     -3.600368    3.168791   -0.390480
  H     -4.551709    3.344149   -0.901255
  H     -2.868238    2.789240   -1.113618
  H     -3.243595    4.128999    0.009549
  O     -1.358579    1.232360    1.189721
  H     -1.058250    1.216459    0.238591
  C     -0.389763    1.957873    1.943072
  H     -0.747221    2.012807    2.975200
  H     -0.260411    2.982763    1.565367
  H      0.585221    1.453754    1.934071
  O     -0.662722    1.449095   -1.383082
  H      0.064188    2.119868   -1.465651
  C     -0.353319    0.341219   -2.229327
  H     -1.072359   -0.454743   -2.019906
  H      0.657637   -0.044472   -2.042737
  H     -0.434617    0.624734   -3.287793

----------------------------
CARTESIAN COORDINATES (A.U.)
----------------------------
  NO LB      ZA    FRAG     MASS         X           Y           Z
   0 O     8.0000    0    15.999   -7.256128    4.220883    1.248045
   1 H     1.0000    0     1.008   -5.590464    3.603776    1.839816
   2 C     6.0000    0    12.011   -6.803710    5.988147   -0.737901
   3 H     1.0000    0     1.008   -8.601484    6.319526   -1.703125
   4 H     1.0000    0     1.008   -5.420184    5.270900   -2.104432
   5 H     1.0000    0     1.008   -6.129506    7.802677    0.018046
   6 O     8.0000    0    15.999   -2.567342    2.328824    2.248247
   7 H     1.0000    0     1.008   -1.999803    2.298775    0.450872
   8 C     6.0000    0    12.011   -0.736546    3.699843    3.671875
   9 H     1.0000    0     1.008   -1.412043    3.803653    5.622314
  10 H     1.0000    0     1.008   -0.492105    5.636606    2.958114
  11 H     1.0000    0     1.008    1.105907    2.747197    3.654864
  12 O     8.0000    0    15.999   -1.252363    2.738392   -2.613646
  13 H     1.0000    0     1.008    0.121298    4.005969   -2.769678
  14 C     6.0000    0    12.011   -0.667677    0.644810   -4.212817
  15 H     1.0000    0     1.008   -2.026464   -0.859340   -3.817070
  16 H     1.0000    0     1.008    1.242753   -0.084040   -3.860213
  17 H     1.0000    0     1.008   -0.821306    1.180576   -6.213028

--------------------------------
INTERNAL COORDINATES (ANGSTROEM)
--------------------------------
 O      0   0   0     0.000000000000     0.00000000     0.00000000
 H      1   0   0     0.990770502364     0.00000000     0.00000000
 C      1   2   0     1.427001964481   107.42874151     0.00000000
 H      3   1   2     1.093933718418   107.63861717   166.29117132
 H      3   1   2     1.096813937399   111.76190604    46.44530864
 H      3   1   2     1.099686447133   111.02456630   284.51887035
 O      2   1   3     1.749615697894   168.40438800   302.52771873
 H      7   2   1     0.997545930411    99.41855341    18.01579983
 C      7   2   1     1.425661091575   119.36644354   134.81296749
 H      9   7   2     1.093655178580   107.58652868    65.09790351
 H      9   7   2     1.099906668874   111.87891396   306.13910435
 H      9   7   2     1.097638534818   111.44220277   184.20292465
 O      8   7   2     1.685344602615   170.36858743    43.94273796
 H     13   8   7     0.992548335239   110.19446525    70.92962507
 C     13   8   7     1.428022723045   120.92869081   198.75797138
 H     15  13   8     1.092899789636   107.99441671    42.85367700
 H     15  13   8     1.098000598188   111.79589191   283.56090327
 H     15  13   8     1.098790649094   110.77151416   162.02034423

---------------------------
INTERNAL COORDINATES (A.U.)
---------------------------
 O      0   0   0     0.000000000000     0.00000000     0.00000000
 H      1   0   0     1.872284911036     0.00000000     0.00000000
 C      1   2   0     2.696642905436   107.42874151     0.00000000
 H      3   1   2     2.067235136471   107.63861717   166.29117132
 H      3   1   2     2.072677961553   111.76190604    46.44530864
 H      3   1   2     2.078106218267   111.02456630   284.51887035
 O      2   1   3     3.306294508629   168.40438800   302.52771873
 H      7   2   1     1.885088614484    99.41855341    18.01579983
 C      7   2   1     2.694109022864   119.36644354   134.81296749
 H      9   7   2     2.066708772461   107.58652868    65.09790351
 H      9   7   2     2.078522377045   111.87891396   306.13910435
 H      9   7   2     2.074236224845   111.44220277   184.20292465
 O      8   7   2     3.184839740225   170.36858743    43.94273796
 H     13   8   7     1.875644528280   110.19446525    70.92962507
 C     13   8   7     2.698571859572   120.92869081   198.75797138
 H     15  13   8     2.065281294231   107.99441671    42.85367700
 H     15  13   8     2.074920425457   111.79589191   283.56090327
 H     15  13   8     2.076413405301   110.77151416   162.02034423

---------------------
BASIS SET INFORMATION
---------------------
There are 3 groups of distinct atoms

 Group   1 Type O   : 11s6p2d1f contracted to 5s3p2d1f pattern {62111/411/11/1}
 Group   2 Type H   : 5s1p contracted to 3s1p pattern {311/1}
 Group   3 Type C   : 11s6p2d1f contracted to 5s3p2d1f pattern {62111/411/11/1}

Atom   0O    basis set group =>   1
Atom   1H    basis set group =>   2
Atom   2C    basis set group =>   3
Atom   3H    basis set group =>   2
Atom   4H    basis set group =>   2
Atom   5H    basis set group =>   2
Atom   6O    basis set group =>   1
Atom   7H    basis set group =>   2
Atom   8C    basis set group =>   3
Atom   9H    basis set group =>   2
Atom  10H    basis set group =>   2
Atom  11H    basis set group =>   2
Atom  12O    basis set group =>   1
Atom  13H    basis set group =>   2
Atom  14C    basis set group =>   3
Atom  15H    basis set group =>   2
Atom  16H    basis set group =>   2
Atom  17H    basis set group =>   2


           ************************************************************
           *        Program running with 6 parallel MPI-processes     *
           *              working on a common directory               *
           ************************************************************
------------------------------------------------------------------------------
                           ORCA GTO INTEGRAL CALCULATION
------------------------------------------------------------------------------

                         BASIS SET STATISTICS AND STARTUP INFO

 # of primitive gaussian shells          ...  192
 # of primitive gaussian functions       ...  372
 # of contracted shells                  ...  114
 # of contracted basis functions         ...  258
 Highest angular momentum                ...    3
 Maximum contraction depth               ...    6
 Integral package used                   ... LIBINT
 Integral threshhold            Thresh   ...  2.500e-11
 Primitive cut-off              TCut     ...  2.500e-12


------------------------------ INTEGRAL EVALUATION ----------------------------


 * One electron integrals 
 Pre-screening matrix                    ... done
 Shell pair data                         ... done (   0.002 sec)



           ************************************************************
           *        Program running with 6 parallel MPI-processes     *
           *              working on a common directory               *
           ************************************************************
-------------------------------------------------------------------------------
                                 ORCA SCF
-------------------------------------------------------------------------------

------------
SCF SETTINGS
------------
Hamiltonian:
 Ab initio Hamiltonian  Method          .... Hartree-Fock(GTOs)


General Settings:
 Integral files         IntName         .... 12meoh.boyd.etal.mol2,4,5-orca.engrad-mp2.def2tzvp.frozencore
 Hartree-Fock type      HFTyp           .... RHF
 Total Charge           Charge          ....    0
 Multiplicity           Mult            ....    1
 Number of Electrons    NEL             ....   54
 Basis Dimension        Dim             ....  258
 Nuclear Repulsion      ENuc            ....    261.2325835355 Eh

Convergence Acceleration:
 DIIS                   CNVDIIS         .... on
   Start iteration      DIISMaxIt       ....    12
   Startup error        DIISStart       ....  0.200000
   # of expansion vecs  DIISMaxEq       ....     5
   Bias factor          DIISBfac        ....   1.050
   Max. coefficient     DIISMaxC        ....  10.000
 Newton-Raphson         CNVNR           .... off
 SOSCF                  CNVSOSCF        .... on
   Start iteration      SOSCFMaxIt      ....   150
   Startup grad/error   SOSCFStart      ....  0.003300
 Level Shifting         CNVShift        .... on
   Level shift para.    LevelShift      ....    0.2500
   Turn off err/grad.   ShiftErr        ....    0.0010
 Zerner damping         CNVZerner       .... off
 Static damping         CNVDamp         .... on
   Fraction old density DampFac         ....    0.7000
   Max. Damping (<1)    DampMax         ....    0.9800
   Min. Damping (>=0)   DampMin         ....    0.0000
   Turn off err/grad.   DampErr         ....    0.1000
 Fernandez-Rico         CNVRico         .... off

SCF Procedure:
 Maximum # iterations   MaxIter         ....   125
 SCF integral mode      SCFMode         .... Direct
   Integral package                     .... LIBINT
 Reset frequency        DirectResetFreq ....    20
 Integral Threshold     Thresh          ....  2.500e-11 Eh
 Primitive CutOff       TCut            ....  2.500e-12 Eh

Convergence Tolerance:
 Convergence Check Mode ConvCheckMode   .... Total+1el-Energy
 Convergence forced     ConvForced      .... 1
 Energy Change          TolE            ....  1.000e-08 Eh
 1-El. energy change                    ....  1.000e-05 Eh
 Orbital Gradient       TolG            ....  1.000e-05
 Orbital Rotation angle TolX            ....  1.000e-05
 DIIS Error             TolErr          ....  5.000e-07


Diagonalization of the overlap matrix:
Smallest eigenvalue                        ... 1.255e-03
Time for diagonalization                   ...    0.011 sec
Threshold for overlap eigenvalues          ... 1.000e-08
Number of eigenvalues below threshold      ... 0
Time for construction of square roots      ...    0.005 sec
Total time needed                          ...    0.016 sec

-------------------
DFT GRID GENERATION
-------------------

General Integration Accuracy     IntAcc      ...  4.340
Radial Grid Type                 RadialGrid  ... Gauss-Chebyshev
Angular Grid (max. acc.)         AngularGrid ... Lebedev-110
Angular grid pruning method      GridPruning ... 3 (G Style)
Weight generation scheme         WeightScheme... Becke
Basis function cutoff            BFCut       ...    1.0000e-11
Integration weight cutoff        WCut        ...    1.0000e-14
Grids for H and He will be reduced by one unit

# of grid points (after initial pruning)     ...  19644 (   0.0 sec)
# of grid points (after weights+screening)   ...  18366 (   0.0 sec)
nearest neighbour list constructed           ...    0.0 sec
Grid point re-assignment to atoms done       ...    0.0 sec
Grid point division into batches done        ...    0.0 sec
Reduced shell lists constructed in    0.0 sec

Total number of grid points                  ...    18366
Total number of batches                      ...      297
Average number of points per batch           ...       61
Average number of grid points per atom       ...     1020
Average number of shells per batch           ...    73.45 (64.43%)
Average number of basis functions per batch  ...   163.84 (63.51%)
Average number of large shells per batch     ...    56.04 (76.29%)
Average number of large basis fcns per batch ...   123.22 (75.20%)
Maximum spatial batch extension              ...  16.83, 17.20, 16.02 au
Average spatial batch extension              ...   0.45,  0.49,  0.49 au

Time for grid setup =    0.058 sec

------------------------------
INITIAL GUESS: MODEL POTENTIAL
------------------------------
Loading Hartree-Fock densities                     ... done
Calculating cut-offs                               ... done
Setting up the integral package                    ... done
Initializing the effective Hamiltonian             ... done
Starting the Coulomb interaction                   ... done (   0.0 sec)
Reading the grid                                   ... done
Mapping shells                                     ... done
Starting the XC term evaluation                    ... done (   0.0 sec)
Transforming the Hamiltonian                       ... done (   0.0 sec)
Diagonalizing the Hamiltonian                      ... done (   0.0 sec)
Back transforming the eigenvectors                 ... done (   0.0 sec)
Now organizing SCF variables                       ... done
                      ------------------
                      INITIAL GUESS DONE (   0.2 sec)
                      ------------------
--------------
SCF ITERATIONS
--------------
ITER       Energy         Delta-E        Max-DP      RMS-DP      [F,P]     Damp
               ***  Starting incremental Fock matrix formation  ***
  0   -344.9447576031   0.000000000000 0.03580456  0.00076237  0.2927157 0.7000
  1   -345.0630375339  -0.118279930829 0.02422719  0.00057462  0.2187666 0.7000
                               ***Turning on DIIS***
  2   -345.1327564833  -0.069718949336 0.01403788  0.00036257  0.1626161 0.7000
  3   -345.9856109919  -0.852854508626 0.00775585  0.00021006  0.1200019 0.7000
  4   -345.8437534906   0.141857501291 0.01661502  0.00050938  0.0845741 0.0000
  5   -345.3027026798   0.541050810835 0.00182187  0.00006997  0.0051482 0.0000
                      *** Initiating the SOSCF procedure ***
                           *** Shutting down DIIS ***
                      *** Re-Reading the Fockian *** 
                      *** Removing any level shift *** 
ITER      Energy       Delta-E        Grad      Rot      Max-DP    RMS-DP
  6   -345.28211410   0.0205885753  0.000631  0.000631  0.000986  0.000037
               *** Restarting incremental Fock matrix formation ***
  7   -345.27664213   0.0054719753  0.000332  0.000399  0.000554  0.000019
  8   -345.27664938  -0.0000072551  0.000136  0.000293  0.000404  0.000014
  9   -345.27665114  -0.0000017518  0.000026  0.000030  0.000078  0.000003
 10   -345.27665121  -0.0000000706  0.000005  0.000008  0.000023  0.000001
                  ***Gradient check signals convergence***
              ***Rediagonalizing the Fockian in SOSCF/NRSCF***

               *****************************************************
               *                     SUCCESS                       *
               *           SCF CONVERGED AFTER  11 CYCLES          *
               *****************************************************


----------------
TOTAL SCF ENERGY
----------------

Total Energy       :         -345.27665121 Eh           -9395.45534 eV

Components:
Nuclear Repulsion  :          261.23258354 Eh            7108.49999 eV
Electronic Energy  :         -606.50923475 Eh          -16503.95532 eV
One Electron Energy:         -991.43295512 Eh          -26978.26226 eV
Two Electron Energy:          384.92372037 Eh           10474.30693 eV

Virial components:
Potential Energy   :         -690.00431373 Eh          -18775.97193 eV
Kinetic Energy     :          344.72766252 Eh            9380.51659 eV
Virial Ratio       :            2.00159253


---------------
SCF CONVERGENCE
---------------

  Last Energy change         ...   -5.5335e-09  Tolerance :   1.0000e-08
  Last MAX-Density change    ...    7.4349e-06  Tolerance :   1.0000e-07
  Last RMS-Density change    ...    1.8455e-07  Tolerance :   5.0000e-09
  Last Orbital Gradient      ...    2.0895e-06  Tolerance :   1.0000e-05
  Last Orbital Rotation      ...    4.1567e-06  Tolerance :   1.0000e-05

             **** THE GBW FILE WAS UPDATED (12meoh.boyd.etal.mol2,4,5-orca.engrad-mp2.def2tzvp.frozencore.gbw) ****
             **** DENSITY FILE WAS UPDATED (12meoh.boyd.etal.mol2,4,5-orca.engrad-mp2.def2tzvp.frozencore.scfp) ****
             **** ENERGY FILE WAS UPDATED (12meoh.boyd.etal.mol2,4,5-orca.engrad-mp2.def2tzvp.frozencore.en.tmp) ****
             **** THE GBW FILE WAS UPDATED (12meoh.boyd.etal.mol2,4,5-orca.engrad-mp2.def2tzvp.frozencore.gbw) ****
             **** DENSITY FILE WAS UPDATED (12meoh.boyd.etal.mol2,4,5-orca.engrad-mp2.def2tzvp.frozencore.scfp) ****
----------------
ORBITAL ENERGIES
----------------

  NO   OCC          E(Eh)            E(eV) 
   0   2.0000     -20.603344      -560.6455 
   1   2.0000     -20.546136      -559.0888 
   2   2.0000     -20.502606      -557.9043 
   3   2.0000     -11.300571      -307.5042 
   4   2.0000     -11.272168      -306.7313 
   5   2.0000     -11.239964      -305.8550 
   6   2.0000      -1.396265       -37.9943 
   7   2.0000      -1.345251       -36.6061 
   8   2.0000      -1.298522       -35.3346 
   9   2.0000      -0.953844       -25.9554 
  10   2.0000      -0.921195       -25.0670 
  11   2.0000      -0.886501       -24.1229 
  12   2.0000      -0.728725       -19.8296 
  13   2.0000      -0.697339       -18.9756 
  14   2.0000      -0.659972       -17.9587 
  15   2.0000      -0.647719       -17.6253 
  16   2.0000      -0.623829       -16.9753 
  17   2.0000      -0.610749       -16.6193 
  18   2.0000      -0.586656       -15.9637 
  19   2.0000      -0.580560       -15.7978 
  20   2.0000      -0.551467       -15.0062 
  21   2.0000      -0.541474       -14.7342 
  22   2.0000      -0.504725       -13.7343 
  23   2.0000      -0.483884       -13.1672 
  24   2.0000      -0.467148       -12.7117 
  25   2.0000      -0.435931       -11.8623 
  26   2.0000      -0.406246       -11.0545 
  27   0.0000       0.101928         2.7736 
  28   0.0000       0.146645         3.9904 
  29   0.0000       0.166172         4.5218 
  30   0.0000       0.182572         4.9680 
  31   0.0000       0.197325         5.3695 
  32   0.0000       0.209886         5.7113 
  33   0.0000       0.213072         5.7980 
  34   0.0000       0.223151         6.0722 
  35   0.0000       0.230035         6.2596 
  36   0.0000       0.244891         6.6638 
  37   0.0000       0.251888         6.8542 
  38   0.0000       0.256221         6.9721 
  39   0.0000       0.278037         7.5658 
  40   0.0000       0.302785         8.2392 
  41   0.0000       0.329809         8.9746 
  42   0.0000       0.331649         9.0246 
  43   0.0000       0.349579         9.5125 
  44   0.0000       0.368743        10.0340 
  45   0.0000       0.381904        10.3921 
  46   0.0000       0.405247        11.0273 
  47   0.0000       0.416574        11.3355 
  48   0.0000       0.450540        12.2598 
  49   0.0000       0.471693        12.8354 
  50   0.0000       0.503678        13.7058 
  51   0.0000       0.511750        13.9254 
  52   0.0000       0.550839        14.9891 
  53   0.0000       0.571720        15.5573 
  54   0.0000       0.584896        15.9158 
  55   0.0000       0.592166        16.1137 
  56   0.0000       0.604944        16.4614 
  57   0.0000       0.619512        16.8578 
  58   0.0000       0.635019        17.2798 
  59   0.0000       0.643547        17.5118 
  60   0.0000       0.650489        17.7007 
  61   0.0000       0.652663        17.7599 
  62   0.0000       0.662096        18.0165 
  63   0.0000       0.676986        18.4217 
  64   0.0000       0.681647        18.5486 
  65   0.0000       0.697850        18.9895 
  66   0.0000       0.721623        19.6364 
  67   0.0000       0.726152        19.7596 
  68   0.0000       0.747548        20.3418 
  69   0.0000       0.756657        20.5897 
  70   0.0000       0.770907        20.9775 
  71   0.0000       0.800951        21.7950 
  72   0.0000       0.846748        23.0412 
  73   0.0000       0.864793        23.5322 
  74   0.0000       0.879356        23.9285 
  75   0.0000       0.904919        24.6241 
  76   0.0000       0.920121        25.0378 
  77   0.0000       0.942323        25.6419 
  78   0.0000       0.950846        25.8738 
  79   0.0000       0.977361        26.5953 
  80   0.0000       1.014537        27.6070 
  81   0.0000       1.027423        27.9576 
  82   0.0000       1.065592        28.9962 
  83   0.0000       1.092826        29.7373 
  84   0.0000       1.106226        30.1019 
  85   0.0000       1.113691        30.3051 
  86   0.0000       1.129690        30.7404 
  87   0.0000       1.174515        31.9602 
  88   0.0000       1.190099        32.3843 
  89   0.0000       1.210992        32.9528 
  90   0.0000       1.242922        33.8216 
  91   0.0000       1.262970        34.3672 
  92   0.0000       1.294292        35.2195 
  93   0.0000       1.566227        42.6192 
  94   0.0000       1.581390        43.0318 
  95   0.0000       1.595134        43.4058 
  96   0.0000       1.650926        44.9240 
  97   0.0000       1.680105        45.7180 
  98   0.0000       1.695648        46.1409 
  99   0.0000       1.717554        46.7370 
 100   0.0000       1.726602        46.9832 
 101   0.0000       1.751022        47.6477 
 102   0.0000       1.763364        47.9836 
 103   0.0000       1.768119        48.1130 
 104   0.0000       1.777621        48.3715 
 105   0.0000       1.788537        48.6686 
 106   0.0000       1.794223        48.8233 
 107   0.0000       1.811016        49.2802 
 108   0.0000       1.813400        49.3451 
 109   0.0000       1.816174        49.4206 
 110   0.0000       1.838998        50.0417 
 111   0.0000       1.861171        50.6450 
 112   0.0000       1.880997        51.1845 
 113   0.0000       1.885257        51.3005 
 114   0.0000       1.902333        51.7651 
 115   0.0000       1.934856        52.6501 
 116   0.0000       1.969454        53.5916 
 117   0.0000       2.007514        54.6272 
 118   0.0000       2.099624        57.1337 
 119   0.0000       2.133333        58.0509 
 120   0.0000       2.142426        58.2984 
 121   0.0000       2.171242        59.0825 
 122   0.0000       2.187811        59.5334 
 123   0.0000       2.223759        60.5116 
 124   0.0000       2.236777        60.8658 
 125   0.0000       2.244816        61.0845 
 126   0.0000       2.268630        61.7326 
 127   0.0000       2.275628        61.9230 
 128   0.0000       2.284439        62.1628 
 129   0.0000       2.295416        62.4614 
 130   0.0000       2.306626        62.7665 
 131   0.0000       2.335679        63.5571 
 132   0.0000       2.343905        63.7809 
 133   0.0000       2.375731        64.6469 
 134   0.0000       2.419667        65.8425 
 135   0.0000       2.463966        67.0479 
 136   0.0000       2.474272        67.3284 
 137   0.0000       2.508545        68.2610 
 138   0.0000       2.553762        69.4914 
 139   0.0000       2.576104        70.0994 
 140   0.0000       2.586665        70.3867 
 141   0.0000       2.589758        70.4709 
 142   0.0000       2.605441        70.8977 
 143   0.0000       2.616822        71.2074 
 144   0.0000       2.619181        71.2715 
 145   0.0000       2.626810        71.4791 
 146   0.0000       2.647549        72.0435 
 147   0.0000       2.664266        72.4984 
 148   0.0000       2.681740        72.9739 
 149   0.0000       2.703627        73.5694 
 150   0.0000       2.716527        73.9204 
 151   0.0000       2.743695        74.6597 
 152   0.0000       2.771856        75.4260 
 153   0.0000       2.792631        75.9914 
 154   0.0000       2.814402        76.5838 
 155   0.0000       2.831159        77.0398 
 156   0.0000       2.842559        77.3500 
 157   0.0000       2.850519        77.5666 
 158   0.0000       2.872430        78.1628 
 159   0.0000       2.899770        78.9067 
 160   0.0000       2.940217        80.0074 
 161   0.0000       2.981831        81.1398 
 162   0.0000       3.034556        82.5745 
 163   0.0000       3.067326        83.4662 
 164   0.0000       3.094076        84.1941 
 165   0.0000       3.101665        84.4006 
 166   0.0000       3.131421        85.2103 
 167   0.0000       3.168031        86.2065 
 168   0.0000       3.191948        86.8573 
 169   0.0000       3.229637        87.8829 
 170   0.0000       3.306707        89.9801 
 171   0.0000       3.323542        90.4382 
 172   0.0000       3.375784        91.8598 
 173   0.0000       3.390692        92.2654 
 174   0.0000       3.402898        92.5976 
 175   0.0000       3.416741        92.9743 
 176   0.0000       3.429138        93.3116 
 177   0.0000       3.465327        94.2963 
 178   0.0000       3.483989        94.8042 
 179   0.0000       3.501973        95.2935 
 180   0.0000       3.533266        96.1451 
 181   0.0000       3.583337        97.5076 
 182   0.0000       3.599013        97.9341 
 183   0.0000       3.619517        98.4921 
 184   0.0000       3.639822        99.0446 
 185   0.0000       3.651191        99.3540 
 186   0.0000       3.681015       100.1655 
 187   0.0000       3.698504       100.6414 
 188   0.0000       3.712492       101.0221 
 189   0.0000       3.730761       101.5192 
 190   0.0000       3.757415       102.2445 
 191   0.0000       3.808775       103.6420 
 192   0.0000       3.836630       104.4000 
 193   0.0000       3.861659       105.0811 
 194   0.0000       3.872313       105.3710 
 195   0.0000       3.883122       105.6651 
 196   0.0000       3.894109       105.9641 
 197   0.0000       3.907398       106.3257 
 198   0.0000       3.923240       106.7568 
 199   0.0000       3.941716       107.2595 
 200   0.0000       3.957109       107.6784 
 201   0.0000       4.205249       114.4307 
 202   0.0000       4.357006       118.5602 
 203   0.0000       4.420299       120.2825 
 204   0.0000       4.508823       122.6913 
 205   0.0000       4.525393       123.1422 
 206   0.0000       4.542047       123.5954 
 207   0.0000       4.554417       123.9320 
 208   0.0000       4.594645       125.0267 
 209   0.0000       4.607411       125.3740 
 210   0.0000       4.699265       127.8735 
 211   0.0000       4.739686       128.9734 
 212   0.0000       4.761017       129.5539 
 213   0.0000       4.873150       132.6052 
 214   0.0000       4.919951       133.8787 
 215   0.0000       4.935161       134.2926 
 216   0.0000       5.676011       154.4521 
 217   0.0000       5.712830       155.4540 
 218   0.0000       5.733369       156.0129 
 219   0.0000       5.744217       156.3081 
 220   0.0000       5.801141       157.8571 
 221   0.0000       5.826004       158.5336 
 222   0.0000       5.838677       158.8785 
 223   0.0000       5.904007       160.6562 
 224   0.0000       5.947120       161.8294 
 225   0.0000       6.129629       166.7957 
 226   0.0000       6.134692       166.9334 
 227   0.0000       6.176229       168.0637 
 228   0.0000       6.194816       168.5695 
 229   0.0000       6.213879       169.0883 
 230   0.0000       6.219425       169.2392 
 231   0.0000       6.271734       170.6626 
 232   0.0000       6.349359       172.7749 
 233   0.0000       6.376903       173.5244 
 234   0.0000       6.604641       179.7214 
 235   0.0000       6.701794       182.3651 
 236   0.0000       6.778120       184.4420 
 237   0.0000       6.992427       190.2736 
 238   0.0000       7.031412       191.3344 
 239   0.0000       7.040071       191.5701 
 240   0.0000       7.137803       194.2295 
 241   0.0000       7.193986       195.7583 
 242   0.0000       7.219296       196.4470 
 243   0.0000       7.267157       197.7494 
 244   0.0000       7.289511       198.3577 
 245   0.0000       7.327831       199.4004 
 246   0.0000       7.455455       202.8733 
 247   0.0000       7.500939       204.1109 
 248   0.0000       7.548379       205.4018 
 249   0.0000       7.624966       207.4859 
 250   0.0000       7.713579       209.8971 
 251   0.0000       7.784138       211.8172 
 252   0.0000      23.345525       635.2640 
 253   0.0000      23.384353       636.3206 
 254   0.0000      23.407564       636.9522 
 255   0.0000      45.195610      1229.8351 
 256   0.0000      45.296968      1232.5932 
 257   0.0000      45.350860      1234.0596 

                    ********************************
                    * MULLIKEN POPULATION ANALYSIS *
                    ********************************

-----------------------
MULLIKEN ATOMIC CHARGES
-----------------------
   0 O :   -0.585460
   1 H :    0.380245
   2 C :   -0.086135
   3 H :    0.096588
   4 H :    0.089495
   5 H :    0.071506
   6 O :   -0.603549
   7 H :    0.394340
   8 C :   -0.095933
   9 H :    0.118870
  10 H :    0.088721
  11 H :    0.093413
  12 O :   -0.580888
  13 H :    0.352181
  14 C :   -0.089550
  15 H :    0.135415
  16 H :    0.108098
  17 H :    0.112642
Sum of atomic charges:   -0.0000000

--------------------------------
MULLIKEN REDUCED ORBITAL CHARGES
--------------------------------
  0 O s       :     3.800309  s :     3.800309
      pz      :     1.563767  p :     4.752079
      px      :     1.557354
      py      :     1.630958
      dz2     :     0.005193  d :     0.031410
      dxz     :     0.006024
      dyz     :     0.007099
      dx2y2   :     0.007823
      dxy     :     0.005271
      f0      :     0.000210  f :     0.001661
      f+1     :     0.000097
      f-1     :     0.000436
      f+2     :     0.000331
      f-2     :     0.000273
      f+3     :     0.000105
      f-3     :     0.000209
  1 H s       :     0.565016  s :     0.565016
      pz      :     0.012745  p :     0.054739
      px      :     0.027337
      py      :     0.014657
  2 C s       :     3.188544  s :     3.188544
      pz      :     0.843112  p :     2.767110
      px      :     1.047507
      py      :     0.876490
      dz2     :     0.026896  d :     0.121351
      dxz     :     0.034856
      dyz     :     0.018346
      dx2y2   :     0.022625
      dxy     :     0.018629
      f0      :     0.001725  f :     0.009131
      f+1     :     0.000456
      f-1     :     0.001730
      f+2     :     0.002088
      f-2     :     0.001914
      f+3     :     0.000752
      f-3     :     0.000466
  3 H s       :     0.882630  s :     0.882630
      pz      :     0.005409  p :     0.020781
      px      :     0.012031
      py      :     0.003341
  4 H s       :     0.890246  s :     0.890246
      pz      :     0.007737  p :     0.020259
      px      :     0.008376
      py      :     0.004147
  5 H s       :     0.908523  s :     0.908523
      pz      :     0.003985  p :     0.019971
      px      :     0.004421
      py      :     0.011564
  6 O s       :     3.804166  s :     3.804166
      pz      :     1.381178  p :     4.767006
      px      :     1.599786
      py      :     1.786042
      dz2     :     0.009357  d :     0.030801
      dxz     :     0.008313
      dyz     :     0.002778
      dx2y2   :     0.003590
      dxy     :     0.006763
      f0      :     0.000395  f :     0.001576
      f+1     :     0.000298
      f-1     :     0.000136
      f+2     :     0.000122
      f-2     :     0.000292
      f+3     :     0.000136
      f-3     :     0.000198
  7 H s       :     0.549319  s :     0.549319
      pz      :     0.033430  p :     0.056342
      px      :     0.011211
      py      :     0.011700
  8 C s       :     3.193884  s :     3.193884
      pz      :     0.976296  p :     2.776299
      px      :     0.874452
      py      :     0.925551
      dz2     :     0.034773  d :     0.116568
      dxz     :     0.014865
      dyz     :     0.014646
      dx2y2   :     0.032374
      dxy     :     0.019910
      f0      :     0.000957  f :     0.009181
      f+1     :     0.001852
      f-1     :     0.000673
      f+2     :     0.001580
      f-2     :     0.001177
      f+3     :     0.001212
      f-3     :     0.001730
  9 H s       :     0.859899  s :     0.859899
      pz      :     0.013945  p :     0.021231
      px      :     0.004005
      py      :     0.003281
 10 H s       :     0.891391  s :     0.891391
      pz      :     0.003924  p :     0.019888
      px      :     0.002922
      py      :     0.013042
 11 H s       :     0.886299  s :     0.886299
      pz      :     0.003033  p :     0.020288
      px      :     0.011947
      py      :     0.005308
 12 O s       :     3.799623  s :     3.799623
      pz      :     1.720512  p :     4.748286
      px      :     1.628104
      py      :     1.399670
      dz2     :     0.005922  d :     0.031310
      dxz     :     0.003163
      dyz     :     0.006665
      dx2y2   :     0.003497
      dxy     :     0.012063
      f0      :     0.000175  f :     0.001669
      f+1     :     0.000153
      f-1     :     0.000307
      f+2     :     0.000263
      f-2     :     0.000191
      f+3     :     0.000223
      f-3     :     0.000358
 13 H s       :     0.605555  s :     0.605555
      pz      :     0.011384  p :     0.042264
      px      :     0.015631
      py      :     0.015248
 14 C s       :     3.202447  s :     3.202447
      pz      :     0.912331  p :     2.769013
      px      :     1.044559
      py      :     0.812123
      dz2     :     0.037232  d :     0.109150
      dxz     :     0.006394
      dyz     :     0.017350
      dx2y2   :     0.017543
      dxy     :     0.030631
      f0      :     0.001294  f :     0.008941
      f+1     :     0.000364
      f-1     :     0.002460
      f+2     :     0.001107
      f-2     :     0.001269
      f+3     :     0.001249
      f-3     :     0.001196
 15 H s       :     0.843124  s :     0.843124
      pz      :     0.003345  p :     0.021461
      px      :     0.008520
      py      :     0.009597
 16 H s       :     0.871564  s :     0.871564
      pz      :     0.003090  p :     0.020339
      px      :     0.012989
      py      :     0.004259
 17 H s       :     0.866634  s :     0.866634
      pz      :     0.014216  p :     0.020724
      px      :     0.003523
      py      :     0.002984


                     *******************************
                     * LOEWDIN POPULATION ANALYSIS *
                     *******************************

----------------------
LOEWDIN ATOMIC CHARGES
----------------------
   0 O :   -0.146011
   1 H :    0.168974
   2 C :   -0.352678
   3 H :    0.094310
   4 H :    0.083241
   5 H :    0.081075
   6 O :   -0.119031
   7 H :    0.171462
   8 C :   -0.344289
   9 H :    0.103736
  10 H :    0.086758
  11 H :    0.090061
  12 O :   -0.098953
  13 H :    0.197205
  14 C :   -0.319455
  15 H :    0.110103
  16 H :    0.094993
  17 H :    0.098499

-------------------------------
LOEWDIN REDUCED ORBITAL CHARGES
-------------------------------
  0 O s       :     3.385997  s :     3.385997
      pz      :     1.560851  p :     4.691484
      px      :     1.528252
      py      :     1.602381
      dz2     :     0.012717  d :     0.064614
      dxz     :     0.013397
      dyz     :     0.015542
      dx2y2   :     0.011861
      dxy     :     0.011097
      f0      :     0.000569  f :     0.003916
      f+1     :     0.000374
      f-1     :     0.000858
      f+2     :     0.000729
      f-2     :     0.000567
      f+3     :     0.000340
      f-3     :     0.000478
  1 H s       :     0.648819  s :     0.648819
      pz      :     0.037594  p :     0.182208
      px      :     0.101930
      py      :     0.042684
  2 C s       :     2.861596  s :     2.861596
      pz      :     0.946182  p :     3.003876
      px      :     1.087993
      py      :     0.969701
      dz2     :     0.090750  d :     0.429948
      dxz     :     0.110199
      dyz     :     0.090517
      dx2y2   :     0.079239
      dxy     :     0.059243
      f0      :     0.013052  f :     0.057259
      f+1     :     0.003592
      f-1     :     0.012271
      f+2     :     0.008923
      f-2     :     0.010084
      f+3     :     0.005062
      f-3     :     0.004275
  3 H s       :     0.847746  s :     0.847746
      pz      :     0.015273  p :     0.057944
      px      :     0.031963
      py      :     0.010709
  4 H s       :     0.856896  s :     0.856896
      pz      :     0.022277  p :     0.059863
      px      :     0.024262
      py      :     0.013325
  5 H s       :     0.861386  s :     0.861386
      pz      :     0.012748  p :     0.057539
      px      :     0.014664
      py      :     0.030127
  6 O s       :     3.380424  s :     3.380424
      pz      :     1.354725  p :     4.669558
      px      :     1.596049
      py      :     1.718784
      dz2     :     0.021437  d :     0.065122
      dxz     :     0.014546
      dyz     :     0.007391
      dx2y2   :     0.009599
      dxy     :     0.012148
      f0      :     0.000550  f :     0.003928
      f+1     :     0.001013
      f-1     :     0.000324
      f+2     :     0.000476
      f-2     :     0.000636
      f+3     :     0.000499
      f-3     :     0.000429
  7 H s       :     0.640277  s :     0.640277
      pz      :     0.111801  p :     0.188260
      px      :     0.040383
      py      :     0.036076
  8 C s       :     2.860893  s :     2.860893
      pz      :     1.016815  p :     2.999202
      px      :     0.970774
      py      :     1.011613
      dz2     :     0.107791  d :     0.426718
      dxz     :     0.064816
      dyz     :     0.049559
      dx2y2   :     0.117486
      dxy     :     0.087067
      f0      :     0.005058  f :     0.057476
      f+1     :     0.010174
      f-1     :     0.004551
      f+2     :     0.011679
      f-2     :     0.009828
      f+3     :     0.007048
      f-3     :     0.009137
  9 H s       :     0.837302  s :     0.837302
      pz      :     0.035218  p :     0.058962
      px      :     0.012859
      py      :     0.010886
 10 H s       :     0.855072  s :     0.855072
      pz      :     0.013472  p :     0.058170
      px      :     0.010292
      py      :     0.034406
 11 H s       :     0.851433  s :     0.851433
      pz      :     0.011092  p :     0.058506
      px      :     0.031256
      py      :     0.016158
 12 O s       :     3.382752  s :     3.382752
      pz      :     1.658770  p :     4.643903
      px      :     1.589839
      py      :     1.395295
      dz2     :     0.015303  d :     0.068172
      dxz     :     0.005774
      dyz     :     0.013935
      dx2y2   :     0.008726
      dxy     :     0.024434
      f0      :     0.000412  f :     0.004126
      f+1     :     0.000374
      f-1     :     0.000823
      f+2     :     0.000590
      f-2     :     0.000614
      f+3     :     0.000429
      f-3     :     0.000884
 13 H s       :     0.656203  s :     0.656203
      pz      :     0.035662  p :     0.146591
      px      :     0.062325
      py      :     0.048605
 14 C s       :     2.861884  s :     2.861884
      pz      :     0.991411  p :     2.988584
      px      :     1.085365
      py      :     0.911807
      dz2     :     0.134492  d :     0.412263
      dxz     :     0.025268
      dyz     :     0.084426
      dx2y2   :     0.058199
      dxy     :     0.109879
      f0      :     0.004875  f :     0.056724
      f+1     :     0.003177
      f-1     :     0.014839
      f+2     :     0.010225
      f-2     :     0.010750
      f+3     :     0.007154
      f-3     :     0.005704
 15 H s       :     0.829774  s :     0.829774
      pz      :     0.011299  p :     0.060124
      px      :     0.024267
      py      :     0.024557
 16 H s       :     0.845672  s :     0.845672
      pz      :     0.010988  p :     0.059335
      px      :     0.034850
      py      :     0.013497
 17 H s       :     0.842266  s :     0.842266
      pz      :     0.036657  p :     0.059235
      px      :     0.012177
      py      :     0.010401


                      *****************************
                      * MAYER POPULATION ANALYSIS *
                      *****************************

  NA   - Mulliken gross atomic population
  ZA   - Total nuclear charge
  QA   - Mulliken gross atomic charge
  VA   - Mayer's total valence
  BVA  - Mayer's bonded valence
  FA   - Mayer's free valence

  ATOM       NA         ZA         QA         VA         BVA        FA
  0 O      8.5855     8.0000    -0.5855     1.7403     1.7403    -0.0000
  1 H      0.6198     1.0000     0.3802     0.8946     0.8946    -0.0000
  2 C      6.0861     6.0000    -0.0861     3.9354     3.9354     0.0000
  3 H      0.9034     1.0000     0.0966     0.9640     0.9640     0.0000
  4 H      0.9105     1.0000     0.0895     0.9608     0.9608    -0.0000
  5 H      0.9285     1.0000     0.0715     0.9582     0.9582     0.0000
  6 O      8.6035     8.0000    -0.6035     1.7266     1.7266    -0.0000
  7 H      0.6057     1.0000     0.3943     0.8704     0.8704     0.0000
  8 C      6.0959     6.0000    -0.0959     3.9003     3.9003     0.0000
  9 H      0.8811     1.0000     0.1189     0.9699     0.9699    -0.0000
 10 H      0.9113     1.0000     0.0887     0.9572     0.9572     0.0000
 11 H      0.9066     1.0000     0.0934     0.9634     0.9634     0.0000
 12 O      8.5809     8.0000    -0.5809     1.7721     1.7721    -0.0000
 13 H      0.6478     1.0000     0.3522     0.8816     0.8816    -0.0000
 14 C      6.0895     6.0000    -0.0895     3.8350     3.8350    -0.0000
 15 H      0.8646     1.0000     0.1354     0.9667     0.9667     0.0000
 16 H      0.8919     1.0000     0.1081     0.9619     0.9619     0.0000
 17 H      0.8874     1.0000     0.1126     0.9649     0.9649     0.0000

  Mayer bond orders larger than 0.100000
B(  0-O ,  1-H ) :   0.8267 B(  0-O ,  2-C ) :   0.9567 B(  2-C ,  3-H ) :   0.9898 
B(  2-C ,  4-H ) :   0.9853 B(  2-C ,  5-H ) :   0.9901 B(  6-O ,  7-H ) :   0.8062 
B(  6-O ,  8-C ) :   0.9168 B(  8-C ,  9-H ) :   0.9890 B(  8-C , 10-H ) :   0.9857 
B(  8-C , 11-H ) :   0.9865 B( 12-O , 13-H ) :   0.8704 B( 12-O , 14-C ) :   0.8755 
B( 14-C , 15-H ) :   0.9838 B( 14-C , 16-H ) :   0.9838 B( 14-C , 17-H ) :   0.9833 


-------
TIMINGS
-------

Total SCF time: 0 days 0 hours 0 min 19 sec 

Total time                  ....      19.354 sec
Sum of individual times     ....      19.106 sec  ( 98.7%)

Fock matrix formation       ....      18.742 sec  ( 96.8%)
Diagonalization             ....       0.073 sec  (  0.4%)
Density matrix formation    ....       0.012 sec  (  0.1%)
Population analysis         ....       0.008 sec  (  0.0%)
Initial guess               ....       0.154 sec  (  0.8%)
Orbital Transformation      ....       0.000 sec  (  0.0%)
Orbital Orthonormalization  ....       0.000 sec  (  0.0%)
DIIS solution               ....       0.027 sec  (  0.1%)
SOSCF solution              ....       0.032 sec  (  0.2%)


           ************************************************************
           *        Program running with 6 parallel MPI-processes     *
           *              working on a common directory               *
           ************************************************************

------------------------------------------------------------------------------
                                ORCA  MP2 
------------------------------------------------------------------------------

Freezing NCore=12 chemical core electrons
MP2 will be done in the AO integral direct mode
The Q1-step will be done using symmetric double matrices
Dimension of the basis                    ...  258
Memory devoted for MP2                    ... 8000 MB   
Memory needed for all in one shot         ...  264 MB
Number of MOs that can be treated together...  120      
MP2 density construction                  ... relaxed
The MP2 gradient is requested => amplitudes will be stored on disk
Total number of MOs              ...   21
Number of MOs treated per batch  ...    4 
Number of batches necessary      ...    1 
OPERATORS   0/  0 PASS   0
-----------------------------------------------
 MP2 CORRELATION ENERGY   :     -1.263427426 Eh
-----------------------------------------------


---------------------
MP2 DENSITY FORMATION
---------------------

Completing the external part of the density      ... done
Storing the unrelaxed density                    ... done

Calculating G(D)                                 ... done
Completing the Lagrangian                        ... done
Solving the Z-vector equations                   ... 

------------------------------------------------------------------------------
                           ORCA CP-SCF CALCULATION
------------------------------------------------------------------------------

Input orbitals are from        ... 12meoh.boyd.etal.mol2,4,5-orca.engrad-mp2.def2tzvp.frozencore.gbw
Input Perturbation             ... 12meoh.boyd.etal.mol2,4,5-orca.engrad-mp2.def2tzvp.frozencore.pin.tmp
Wavefunction output            ... 12meoh.boyd.etal.mol2,4,5-orca.engrad-mp2.def2tzvp.frozencore.pout.tmp
Perturbation mode              ... Real perturbation (singlet)
Solver                         ... POPLE
Max. number of iterations      ... 128
Convergence tolerance          ... 1.000e-08
Integral handling              ... Direct
Number of perturbations        ... 1
Number of operators            ... 1
Orbital ranges used for CP-SCF:
 Operator 0:  Orbitals   0... 26  to  27...257
Variables per vector in CP-SCF ... 6237
Number of vectors sought       ... 1
     CP-SCF ITERATION   0: 
     CP-SCF ITERATION   1:      0.000367561235
     CP-SCF ITERATION   2:      0.000034527176
     CP-SCF ITERATION   3:      0.000004633148
     CP-SCF ITERATION   4:      0.000000203308
     CP-SCF ITERATION   5:      0.000000008219
                                                 ... done
Finalizing the relaxed density                   ... done
Transforming P to the AO basis                   ... done
Storing the relaxed density                      ... done

------------------------------------
ENERGY WEIGHTED DENSITY FINALIZATION
------------------------------------

Gathering the parts of the W-matrix              ...                                                      done
Forming the Z-density                            ... done
Transforming Z to the AO basis                   ... done
Calculating G(Z)                                 ... done
Finalizing the W-matrix                          ...                                                      done
Transforming W to the AO basis and storing       ... done

                *********************************************
                * UNRELAXED MP2 DENSITY POPULATION ANALYSIS *
                *********************************************

------------------------------------------------------------------------------
                           ORCA POPULATION ANALYSIS
------------------------------------------------------------------------------
Input electron density              ... 12meoh.boyd.etal.mol2,4,5-orca.engrad-mp2.def2tzvp.frozencore.pmp2ur
BaseName (.gbw .S,...)              ... 12meoh.boyd.etal.mol2,4,5-orca.engrad-mp2.def2tzvp.frozencore

                    ********************************
                    * MULLIKEN POPULATION ANALYSIS *
                    ********************************

-----------------------
MULLIKEN ATOMIC CHARGES
-----------------------
   0 O :   -0.573330
   1 H :    0.375928
   2 C :   -0.102797
   3 H :    0.099473
   4 H :    0.091632
   5 H :    0.074153
   6 O :   -0.590532
   7 H :    0.389704
   8 C :   -0.112369
   9 H :    0.121641
  10 H :    0.091220
  11 H :    0.095989
  12 O :   -0.568878
  13 H :    0.349478
  14 C :   -0.104875
  15 H :    0.138012
  16 H :    0.110486
  17 H :    0.115066
Sum of atomic charges:   -0.0000000

--------------------------------
MULLIKEN REDUCED ORBITAL CHARGES
--------------------------------
  0 O s       :     3.794927  s :     3.794927
      pz      :     1.551260  p :     4.714840
      px      :     1.545402
      py      :     1.618177
      dz2     :     0.010865  d :     0.059220
      dxz     :     0.011593
      dyz     :     0.012546
      dx2y2   :     0.013300
      dxy     :     0.010917
      f0      :     0.000593  f :     0.004343
      f+1     :     0.000486
      f-1     :     0.000808
      f+2     :     0.000713
      f-2     :     0.000655
      f+3     :     0.000494
      f-3     :     0.000595
  1 H s       :     0.567589  s :     0.567589
      pz      :     0.013480  p :     0.056483
      px      :     0.027583
      py      :     0.015420
  2 C s       :     3.186775  s :     3.186775
      pz      :     0.842714  p :     2.761137
      px      :     1.043057
      py      :     0.875365
      dz2     :     0.031728  d :     0.142415
      dxz     :     0.038770
      dyz     :     0.021464
      dx2y2   :     0.026936
      dxy     :     0.023518
      f0      :     0.002192  f :     0.012469
      f+1     :     0.001004
      f-1     :     0.002158
      f+2     :     0.002497
      f-2     :     0.002391
      f+3     :     0.001246
      f-3     :     0.000982
  3 H s       :     0.876577  s :     0.876577
      pz      :     0.006523  p :     0.023951
      px      :     0.012935
      py      :     0.004493
  4 H s       :     0.884872  s :     0.884872
      pz      :     0.008782  p :     0.023496
      px      :     0.009426
      py      :     0.005288
  5 H s       :     0.902569  s :     0.902569
      pz      :     0.005125  p :     0.023278
      px      :     0.005588
      py      :     0.012565
  6 O s       :     3.798672  s :     3.798672
      pz      :     1.370811  p :     4.728237
      px      :     1.585602
      py      :     1.771825
      dz2     :     0.014997  d :     0.059335
      dxz     :     0.013900
      dyz     :     0.008620
      dx2y2   :     0.009456
      dxy     :     0.012363
      f0      :     0.000779  f :     0.004287
      f+1     :     0.000697
      f-1     :     0.000522
      f+2     :     0.000509
      f-2     :     0.000675
      f+3     :     0.000524
      f-3     :     0.000581
  7 H s       :     0.552250  s :     0.552250
      pz      :     0.033421  p :     0.058046
      px      :     0.012031
      py      :     0.012595
  8 C s       :     3.191987  s :     3.191987
      pz      :     0.974030  p :     2.770354
      px      :     0.873220
      py      :     0.923103
      dz2     :     0.039051  d :     0.137514
      dxz     :     0.019059
      dyz     :     0.019216
      dx2y2   :     0.036407
      dxy     :     0.023782
      f0      :     0.001441  f :     0.012513
      f+1     :     0.002301
      f-1     :     0.001218
      f+2     :     0.002052
      f-2     :     0.001590
      f+3     :     0.001764
      f-3     :     0.002147
  9 H s       :     0.854060  s :     0.854060
      pz      :     0.014802  p :     0.024299
      px      :     0.005090
      py      :     0.004407
 10 H s       :     0.885646  s :     0.885646
      pz      :     0.005072  p :     0.023135
      px      :     0.004104
      py      :     0.013958
 11 H s       :     0.880524  s :     0.880524
      pz      :     0.004196  p :     0.023487
      px      :     0.012888
      py      :     0.006403
 12 O s       :     3.794333  s :     3.794333
      pz      :     1.706066  p :     4.710650
      px      :     1.615563
      py      :     1.389020
      dz2     :     0.011786  d :     0.059538
      dxz     :     0.008913
      dyz     :     0.012304
      dx2y2   :     0.009127
      dxy     :     0.017408
      f0      :     0.000561  f :     0.004357
      f+1     :     0.000533
      f-1     :     0.000695
      f+2     :     0.000639
      f-2     :     0.000583
      f+3     :     0.000607
      f-3     :     0.000738
 13 H s       :     0.606666  s :     0.606666
      pz      :     0.012250  p :     0.043856
      px      :     0.016038
      py      :     0.015568
 14 C s       :     3.200266  s :     3.200266
      pz      :     0.910394  p :     2.762548
      px      :     1.039746
      py      :     0.812408
      dz2     :     0.040923  d :     0.129801
      dxz     :     0.011667
      dyz     :     0.020761
      dx2y2   :     0.021796
      dxy     :     0.034654
      f0      :     0.001780  f :     0.012259
      f+1     :     0.000878
      f-1     :     0.002924
      f+2     :     0.001512
      f-2     :     0.001744
      f+3     :     0.001748
      f-3     :     0.001673
 15 H s       :     0.837539  s :     0.837539
      pz      :     0.004444  p :     0.024450
      px      :     0.009468
      py      :     0.010537
 16 H s       :     0.866052  s :     0.866052
      pz      :     0.004235  p :     0.023462
      px      :     0.013871
      py      :     0.005355
 17 H s       :     0.861110  s :     0.861110
      pz      :     0.015052  p :     0.023824
      px      :     0.004653
      py      :     0.004119


                     *******************************
                     * LOEWDIN POPULATION ANALYSIS *
                     *******************************

----------------------
LOEWDIN ATOMIC CHARGES
----------------------
   0 O :   -0.138063
   1 H :    0.166328
   2 C :   -0.364001
   3 H :    0.095995
   4 H :    0.084496
   5 H :    0.082463
   6 O :   -0.109964
   7 H :    0.168776
   8 C :   -0.355370
   9 H :    0.105492
  10 H :    0.088189
  11 H :    0.091554
  12 O :   -0.089808
  13 H :    0.195339
  14 C :   -0.329941
  15 H :    0.111917
  16 H :    0.096527
  17 H :    0.100070

-------------------------------
LOEWDIN REDUCED ORBITAL CHARGES
-------------------------------
  0 O s       :     3.382644  s :     3.382644
      pz      :     1.548133  p :     4.654628
      px      :     1.516896
      py      :     1.589599
      dz2     :     0.018450  d :     0.093936
      dxz     :     0.019007
      dyz     :     0.021957
      dx2y2   :     0.017745
      dxy     :     0.016776
      f0      :     0.000977  f :     0.006855
      f+1     :     0.000779
      f-1     :     0.001295
      f+2     :     0.001167
      f-2     :     0.000989
      f+3     :     0.000748
      f-3     :     0.000900
  1 H s       :     0.648536  s :     0.648536
      pz      :     0.038450  p :     0.185136
      px      :     0.103163
      py      :     0.043523
  2 C s       :     2.860557  s :     2.860557
      pz      :     0.942749  p :     2.989959
      px      :     1.081479
      py      :     0.965731
      dz2     :     0.094827  d :     0.451302
      dxz     :     0.114226
      dyz     :     0.094538
      dx2y2   :     0.083844
      dxy     :     0.063867
      f0      :     0.013550  f :     0.062184
      f+1     :     0.004289
      f-1     :     0.013038
      f+2     :     0.009859
      f-2     :     0.010806
      f+3     :     0.005731
      f-3     :     0.004911
  3 H s       :     0.840882  s :     0.840882
      pz      :     0.016914  p :     0.063123
      px      :     0.034155
      py      :     0.012054
  4 H s       :     0.850275  s :     0.850275
      pz      :     0.024284  p :     0.065229
      px      :     0.026163
      py      :     0.014781
  5 H s       :     0.854565  s :     0.854565
      pz      :     0.014230  p :     0.062971
      px      :     0.016109
      py      :     0.032633
  6 O s       :     3.377049  s :     3.377049
      pz      :     1.344624  p :     4.630899
      px      :     1.581443
      py      :     1.704833
      dz2     :     0.027420  d :     0.095112
      dxz     :     0.020641
      dyz     :     0.013268
      dx2y2   :     0.015434
      dxy     :     0.018348
      f0      :     0.001017  f :     0.006904
      f+1     :     0.001461
      f-1     :     0.000724
      f+2     :     0.000880
      f-2     :     0.001077
      f+3     :     0.000899
      f-3     :     0.000847
  7 H s       :     0.640220  s :     0.640220
      pz      :     0.112706  p :     0.191004
      px      :     0.041345
      py      :     0.036953
  8 C s       :     2.859806  s :     2.859806
      pz      :     1.011932  p :     2.985328
      px      :     0.966705
      py      :     1.006692
      dz2     :     0.111805  d :     0.447861
      dxz     :     0.069347
      dyz     :     0.054158
      dx2y2   :     0.121243
      dxy     :     0.091307
      f0      :     0.005918  f :     0.062374
      f+1     :     0.010836
      f-1     :     0.005178
      f+2     :     0.012195
      f-2     :     0.010576
      f+3     :     0.007669
      f-3     :     0.010002
  9 H s       :     0.830518  s :     0.830518
      pz      :     0.037610  p :     0.063990
      px      :     0.014234
      py      :     0.012146
 10 H s       :     0.848308  s :     0.848308
      pz      :     0.014922  p :     0.063502
      px      :     0.011662
      py      :     0.036919
 11 H s       :     0.844658  s :     0.844658
      pz      :     0.012393  p :     0.063787
      px      :     0.033719
      py      :     0.017675
 12 O s       :     3.379274  s :     3.379274
      pz      :     1.644110  p :     4.605697
      px      :     1.577433
      py      :     1.384153
      dz2     :     0.021185  d :     0.097765
      dxz     :     0.011593
      dyz     :     0.020285
      dx2y2   :     0.014389
      dxy     :     0.030312
      f0      :     0.000827  f :     0.007073
      f+1     :     0.000778
      f-1     :     0.001255
      f+2     :     0.001011
      f-2     :     0.001033
      f+3     :     0.000855
      f-3     :     0.001313
 13 H s       :     0.654627  s :     0.654627
      pz      :     0.036540  p :     0.150034
      px      :     0.063752
      py      :     0.049743
 14 C s       :     2.860690  s :     2.860690
      pz      :     0.986939  p :     2.974651
      px      :     1.078797
      py      :     0.908915
      dz2     :     0.138093  d :     0.433038
      dxz     :     0.030231
      dyz     :     0.088381
      dx2y2   :     0.062438
      dxy     :     0.113895
      f0      :     0.005742  f :     0.061562
      f+1     :     0.003832
      f-1     :     0.015481
      f+2     :     0.010849
      f-2     :     0.011325
      f+3     :     0.007873
      f-3     :     0.006461
 15 H s       :     0.823091  s :     0.823091
      pz      :     0.012576  p :     0.064993
      px      :     0.025933
      py      :     0.026483
 16 H s       :     0.838997  s :     0.838997
      pz      :     0.012301  p :     0.064476
      px      :     0.037174
      py      :     0.015001
 17 H s       :     0.835605  s :     0.835605
      pz      :     0.039135  p :     0.064325
      px      :     0.013410
      py      :     0.011780


                      *****************************
                      * MAYER POPULATION ANALYSIS *
                      *****************************

  NA   - Mulliken gross atomic population
  ZA   - Total nuclear charge
  QA   - Mulliken gross atomic charge
  VA   - Mayer's total valence
  BVA  - Mayer's bonded valence
  FA   - Mayer's free valence

  ATOM       NA         ZA         QA         VA         BVA        FA
  0 O      8.5733     8.0000    -0.5733     2.0458     1.6366     0.4092
  1 H      0.6241     1.0000     0.3759     0.9021     0.8533     0.0487
  2 C      6.1028     6.0000    -0.1028     4.0408     3.7558     0.2850
  3 H      0.9005     1.0000     0.0995     0.9733     0.9254     0.0479
  4 H      0.9084     1.0000     0.0916     0.9715     0.9210     0.0505
  5 H      0.9258     1.0000     0.0742     0.9688     0.9182     0.0506
  6 O      8.5905     8.0000    -0.5905     2.0356     1.6229     0.4127
  7 H      0.6103     1.0000     0.3897     0.8780     0.8291     0.0489
  8 C      6.1124     6.0000    -0.1124     4.0077     3.7239     0.2839
  9 H      0.8784     1.0000     0.1216     0.9783     0.9317     0.0466
 10 H      0.9088     1.0000     0.0912     0.9673     0.9175     0.0498
 11 H      0.9040     1.0000     0.0960     0.9731     0.9240     0.0491
 12 O      8.5689     8.0000    -0.5689     2.0785     1.6679     0.4107
 13 H      0.6505     1.0000     0.3495     0.8878     0.8365     0.0513
 14 C      6.1049     6.0000    -0.1049     3.9427     3.6655     0.2772
 15 H      0.8620     1.0000     0.1380     0.9747     0.9292     0.0456
 16 H      0.8895     1.0000     0.1105     0.9711     0.9229     0.0482
 17 H      0.8849     1.0000     0.1151     0.9739     0.9261     0.0478

  Mayer bond orders larger than 0.100000
B(  0-O ,  1-H ) :   0.7877 B(  0-O ,  2-C ) :   0.8943 B(  2-C ,  3-H ) :   0.9518 
B(  2-C ,  4-H ) :   0.9465 B(  2-C ,  5-H ) :   0.9509 B(  6-O ,  7-H ) :   0.7672 
B(  6-O ,  8-C ) :   0.8565 B(  8-C ,  9-H ) :   0.9514 B(  8-C , 10-H ) :   0.9470 
B(  8-C , 11-H ) :   0.9481 B( 12-O , 13-H ) :   0.8262 B( 12-O , 14-C ) :   0.8193 
B( 14-C , 15-H ) :   0.9469 B( 14-C , 16-H ) :   0.9459 B( 14-C , 17-H ) :   0.9456 



                *******************************************
                * RELAXED MP2 DENSITY POPULATION ANALYSIS *
                *******************************************

------------------------------------------------------------------------------
                           ORCA POPULATION ANALYSIS
------------------------------------------------------------------------------
Input electron density              ... 12meoh.boyd.etal.mol2,4,5-orca.engrad-mp2.def2tzvp.frozencore.pmp2re
BaseName (.gbw .S,...)              ... 12meoh.boyd.etal.mol2,4,5-orca.engrad-mp2.def2tzvp.frozencore

                    ********************************
                    * MULLIKEN POPULATION ANALYSIS *
                    ********************************

-----------------------
MULLIKEN ATOMIC CHARGES
-----------------------
   0 O :   -0.527011
   1 H :    0.354486
   2 C :   -0.188180
   3 H :    0.118031
   4 H :    0.103623
   5 H :    0.092291
   6 O :   -0.538748
   7 H :    0.367300
   8 C :   -0.196578
   9 H :    0.140417
  10 H :    0.108770
  11 H :    0.113752
  12 O :   -0.523775
  13 H :    0.344885
  14 C :   -0.183386
  15 H :    0.155558
  16 H :    0.126892
  17 H :    0.131673
Sum of atomic charges:   -0.0000000

--------------------------------
MULLIKEN REDUCED ORBITAL CHARGES
--------------------------------
  0 O s       :     3.790699  s :     3.790699
      pz      :     1.537533  p :     4.674684
      px      :     1.532136
      py      :     1.605014
      dz2     :     0.010746  d :     0.057338
      dxz     :     0.011503
      dyz     :     0.011599
      dx2y2   :     0.012692
      dxy     :     0.010799
      f0      :     0.000593  f :     0.004290
      f+1     :     0.000482
      f-1     :     0.000791
      f+2     :     0.000698
      f-2     :     0.000652
      f+3     :     0.000489
      f-3     :     0.000585
  1 H s       :     0.589002  s :     0.589002
      pz      :     0.013978  p :     0.056512
      px      :     0.026653
      py      :     0.015881
  2 C s       :     3.208305  s :     3.208305
      pz      :     0.862943  p :     2.833662
      px      :     1.071179
      py      :     0.899540
      dz2     :     0.033159  d :     0.134265
      dxz     :     0.035723
      dyz     :     0.017951
      dx2y2   :     0.024503
      dxy     :     0.022929
      f0      :     0.002086  f :     0.011947
      f+1     :     0.000984
      f-1     :     0.002073
      f+2     :     0.002352
      f-2     :     0.002318
      f+3     :     0.001202
      f-3     :     0.000932
  3 H s       :     0.859099  s :     0.859099
      pz      :     0.006360  p :     0.022870
      px      :     0.011810
      py      :     0.004700
  4 H s       :     0.873836  s :     0.873836
      pz      :     0.008255  p :     0.022541
      px      :     0.008919
      py      :     0.005367
  5 H s       :     0.885422  s :     0.885422
      pz      :     0.005147  p :     0.022288
      px      :     0.005667
      py      :     0.011474
  6 O s       :     3.797748  s :     3.797748
      pz      :     1.359261  p :     4.678992
      px      :     1.563335
      py      :     1.756396
      dz2     :     0.014658  d :     0.057768
      dxz     :     0.012952
      dyz     :     0.008465
      dx2y2   :     0.009781
      dxy     :     0.011912
      f0      :     0.000759  f :     0.004240
      f+1     :     0.000690
      f-1     :     0.000526
      f+2     :     0.000511
      f-2     :     0.000653
      f+3     :     0.000529
      f-3     :     0.000572
  7 H s       :     0.574723  s :     0.574723
      pz      :     0.031846  p :     0.057977
      px      :     0.012696
      py      :     0.013434
  8 C s       :     3.213501  s :     3.213501
      pz      :     0.998196  p :     2.842304
      px      :     0.894853
      py      :     0.949254
      dz2     :     0.036881  d :     0.128799
      dxz     :     0.017311
      dyz     :     0.018274
      dx2y2   :     0.034364
      dxy     :     0.021970
      f0      :     0.001371  f :     0.011974
      f+1     :     0.002186
      f-1     :     0.001187
      f+2     :     0.001950
      f-2     :     0.001528
      f+3     :     0.001730
      f-3     :     0.002022
  9 H s       :     0.836427  s :     0.836427
      pz      :     0.013405  p :     0.023156
      px      :     0.005113
      py      :     0.004638
 10 H s       :     0.869128  s :     0.869128
      pz      :     0.005122  p :     0.022101
      px      :     0.004361
      py      :     0.012618
 11 H s       :     0.863833  s :     0.863833
      pz      :     0.004425  p :     0.022416
      px      :     0.011706
      py      :     0.006284
 12 O s       :     3.798793  s :     3.798793
      pz      :     1.684900  p :     4.662848
      px      :     1.596623
      py      :     1.381325
      dz2     :     0.011986  d :     0.057829
      dxz     :     0.009010
      dyz     :     0.011418
      dx2y2   :     0.008992
      dxy     :     0.016423
      f0      :     0.000557  f :     0.004305
      f+1     :     0.000528
      f-1     :     0.000691
      f+2     :     0.000625
      f-2     :     0.000580
      f+3     :     0.000599
      f-3     :     0.000725
 13 H s       :     0.610647  s :     0.610647
      pz      :     0.013167  p :     0.044469
      px      :     0.015977
      py      :     0.015324
 14 C s       :     3.220902  s :     3.220902
      pz      :     0.932837  p :     2.831145
      px      :     1.065865
      py      :     0.832444
      dz2     :     0.036531  d :     0.119654
      dxz     :     0.012590
      dyz     :     0.018478
      dx2y2   :     0.020118
      dxy     :     0.031936
      f0      :     0.001702  f :     0.011684
      f+1     :     0.000843
      f-1     :     0.002756
      f+2     :     0.001432
      f-2     :     0.001697
      f+3     :     0.001681
      f-3     :     0.001574
 15 H s       :     0.821181  s :     0.821181
      pz      :     0.004612  p :     0.023261
      px      :     0.008912
      py      :     0.009736
 16 H s       :     0.850786  s :     0.850786
      pz      :     0.004453  p :     0.022323
      px      :     0.012572
      py      :     0.005297
 17 H s       :     0.845630  s :     0.845630
      pz      :     0.013557  p :     0.022697
      px      :     0.004885
      py      :     0.004254


                     *******************************
                     * LOEWDIN POPULATION ANALYSIS *
                     *******************************

----------------------
LOEWDIN ATOMIC CHARGES
----------------------
   0 O :   -0.122825
   1 H :    0.160023
   2 C :   -0.400331
   3 H :    0.103531
   4 H :    0.088881
   5 H :    0.088674
   6 O :   -0.089719
   7 H :    0.162742
   8 C :   -0.390213
   9 H :    0.113022
  10 H :    0.094652
  11 H :    0.098242
  12 O :   -0.070422
  13 H :    0.198367
  14 C :   -0.363544
  15 H :    0.119154
  16 H :    0.103088
  17 H :    0.106676

-------------------------------
LOEWDIN REDUCED ORBITAL CHARGES
-------------------------------
  0 O s       :     3.384893  s :     3.384893
      pz      :     1.541731  p :     4.637116
      px      :     1.512716
      py      :     1.582669
      dz2     :     0.018733  d :     0.093843
      dxz     :     0.019093
      dyz     :     0.021426
      dx2y2   :     0.017683
      dxy     :     0.016909
      f0      :     0.001002  f :     0.006972
      f+1     :     0.000780
      f-1     :     0.001320
      f+2     :     0.001191
      f-2     :     0.001009
      f+3     :     0.000751
      f-3     :     0.000919
  1 H s       :     0.654040  s :     0.654040
      pz      :     0.038887  p :     0.185937
      px      :     0.103079
      py      :     0.043971
  2 C s       :     2.866786  s :     2.866786
      pz      :     0.954105  p :     3.029876
      px      :     1.097080
      py      :     0.978692
      dz2     :     0.096281  d :     0.442995
      dxz     :     0.111470
      dyz     :     0.089764
      dx2y2   :     0.082510
      dxy     :     0.062970
      f0      :     0.013239  f :     0.060673
      f+1     :     0.004134
      f-1     :     0.012801
      f+2     :     0.009579
      f-2     :     0.010548
      f+3     :     0.005583
      f-3     :     0.004790
  3 H s       :     0.832796  s :     0.832796
      pz      :     0.017247  p :     0.063674
      px      :     0.033880
      py      :     0.012546
  4 H s       :     0.845035  s :     0.845035
      pz      :     0.024606  p :     0.066084
      px      :     0.026302
      py      :     0.015175
  5 H s       :     0.847396  s :     0.847396
      pz      :     0.014608  p :     0.063929
      px      :     0.016553
      py      :     0.032768
  6 O s       :     3.379565  s :     3.379565
      pz      :     1.346146  p :     4.607454
      px      :     1.567294
      py      :     1.694014
      dz2     :     0.027699  d :     0.095671
      dxz     :     0.020378
      dyz     :     0.013299
      dx2y2   :     0.015948
      dxy     :     0.018346
      f0      :     0.001042  f :     0.007029
      f+1     :     0.001491
      f-1     :     0.000732
      f+2     :     0.000898
      f-2     :     0.001096
      f+3     :     0.000907
      f-3     :     0.000864
  7 H s       :     0.645956  s :     0.645956
      pz      :     0.111458  p :     0.191302
      px      :     0.041967
      py      :     0.037877
  8 C s       :     2.866008  s :     2.866008
      pz      :     1.025536  p :     3.025358
      px      :     0.978570
      py      :     1.021251
      dz2     :     0.109240  d :     0.438072
      dxz     :     0.067265
      dyz     :     0.051882
      dx2y2   :     0.120516
      dxy     :     0.089169
      f0      :     0.005783  f :     0.060775
      f+1     :     0.010550
      f-1     :     0.005021
      f+2     :     0.011858
      f-2     :     0.010512
      f+3     :     0.007236
      f-3     :     0.009815
  9 H s       :     0.822529  s :     0.822529
      pz      :     0.037234  p :     0.064449
      px      :     0.014567
      py      :     0.012648
 10 H s       :     0.840968  s :     0.840968
      pz      :     0.015337  p :     0.064380
      px      :     0.012226
      py      :     0.036818
 11 H s       :     0.837117  s :     0.837117
      pz      :     0.012943  p :     0.064641
      px      :     0.033764
      py      :     0.017934
 12 O s       :     3.382171  s :     3.382171
      pz      :     1.628625  p :     4.583058
      px      :     1.570830
      py      :     1.383604
      dz2     :     0.021713  d :     0.098008
      dxz     :     0.011929
      dyz     :     0.020043
      dx2y2   :     0.014462
      dxy     :     0.029860
      f0      :     0.000837  f :     0.007185
      f+1     :     0.000783
      f-1     :     0.001286
      f+2     :     0.001035
      f-2     :     0.001050
      f+3     :     0.000869
      f-3     :     0.001326
 13 H s       :     0.651210  s :     0.651210
      pz      :     0.037238  p :     0.150423
      px      :     0.064039
      py      :     0.049145
 14 C s       :     2.866800  s :     2.866800
      pz      :     1.000393  p :     3.014859
      px      :     1.093962
      py      :     0.920504
      dz2     :     0.136187  d :     0.421929
      dxz     :     0.029990
      dyz     :     0.084816
      dx2y2   :     0.059183
      dxy     :     0.111752
      f0      :     0.005484  f :     0.059956
      f+1     :     0.003756
      f-1     :     0.014951
      f+2     :     0.010673
      f-2     :     0.011182
      f+3     :     0.007651
      f-3     :     0.006259
 15 H s       :     0.815527  s :     0.815527
      pz      :     0.013015  p :     0.065319
      px      :     0.025907
      py      :     0.026397
 16 H s       :     0.831703  s :     0.831703
      pz      :     0.012803  p :     0.065209
      px      :     0.036896
      py      :     0.015510
 17 H s       :     0.828317  s :     0.828317
      pz      :     0.038869  p :     0.065007
      px      :     0.013882
      py      :     0.012256


                      *****************************
                      * MAYER POPULATION ANALYSIS *
                      *****************************

  NA   - Mulliken gross atomic population
  ZA   - Total nuclear charge
  QA   - Mulliken gross atomic charge
  VA   - Mayer's total valence
  BVA  - Mayer's bonded valence
  FA   - Mayer's free valence

  ATOM       NA         ZA         QA         VA         BVA        FA
  0 O      8.5270     8.0000    -0.5270     2.1085     1.7061     0.4024
  1 H      0.6455     1.0000     0.3545     0.9310     0.8829     0.0481
  2 C      6.1882     6.0000    -0.1882     4.0643     3.7821     0.2822
  3 H      0.8820     1.0000     0.1180     0.9648     0.9175     0.0473
  4 H      0.8964     1.0000     0.1036     0.9711     0.9215     0.0496
  5 H      0.9077     1.0000     0.0923     0.9588     0.9089     0.0499
  6 O      8.5387     8.0000    -0.5387     2.1143     1.7095     0.4048
  7 H      0.6327     1.0000     0.3673     0.9066     0.8585     0.0481
  8 C      6.1966     6.0000    -0.1966     4.0256     3.7444     0.2812
  9 H      0.8596     1.0000     0.1404     0.9707     0.9246     0.0460
 10 H      0.8912     1.0000     0.1088     0.9590     0.9098     0.0492
 11 H      0.8862     1.0000     0.1138     0.9656     0.9172     0.0484
 12 O      8.5238     8.0000    -0.5238     2.1573     1.7547     0.4026
 13 H      0.6551     1.0000     0.3449     0.8902     0.8388     0.0514
 14 C      6.1834     6.0000    -0.1834     3.9537     3.6787     0.2750
 15 H      0.8444     1.0000     0.1556     0.9675     0.9225     0.0450
 16 H      0.8731     1.0000     0.1269     0.9640     0.9164     0.0476
 17 H      0.8683     1.0000     0.1317     0.9667     0.9195     0.0472

  Mayer bond orders larger than 0.100000
B(  0-O ,  1-H ) :   0.7896 B(  0-O ,  2-C ) :   0.9464 B(  2-C ,  3-H ) :   0.9426 
B(  2-C ,  4-H ) :   0.9348 B(  2-C ,  5-H ) :   0.9394 B(  6-O ,  7-H ) :   0.7664 
B(  6-O ,  8-C ) :   0.8975 B(  8-C ,  9-H ) :   0.9432 B(  8-C , 10-H ) :   0.9353 
B(  8-C , 11-H ) :   0.9372 B( 12-O , 13-H ) :   0.8255 B( 12-O , 14-C ) :   0.8590 
B( 14-C , 15-H ) :   0.9387 B( 14-C , 16-H ) :   0.9348 B( 14-C , 17-H ) :   0.9348 



----------------------------------
MP2 DERIVATIVE INTEGRAL GENERATION
----------------------------------


Input Wavefunction Amplitudes       ... 12meoh.boyd.etal.mol2,4,5-orca.engrad-mp2.def2tzvp.frozencore.mp2tsaa.tmp
Input Correlated Electron Density   ... 12meoh.boyd.etal.mol2,4,5-orca.engrad-mp2.def2tzvp.frozencore.pmp2re
Input Energy Weighted Density       ... 12meoh.boyd.etal.mol2,4,5-orca.engrad-mp2.def2tzvp.frozencore.wmp2.tmp
Input SCF Electron Density          ... 12meoh.boyd.etal.mol2,4,5-orca.engrad-mp2.def2tzvp.frozencore.scfp

One-Electron Terms    ...
                        ... One-Electron Terms done
Prescreening matrices              ... done

Batch handling in the gradient evaluation:
Memory available                      ... 8000.0 MB
Memory per occupied orbital in Q2     ...   10.7 MB
Memory per occupied orbital in Q3     ...    0.1 MB
Total memory requirement per |i>      ...   10.8 MB
Max. Number of orbitals possible      ...    743
Number of orbitals treated per batch  ...     21
Number of batches to be done          ...      1
Batch   0: i=    6 ...    26

---------------------------------------
MP2 TOTAL ENERGY:     -346.540078638 Eh
---------------------------------------

The final MP2 gradient
  0:  -0.00786337  -0.00155214   0.00300207
  1:   0.01156294  -0.00415848   0.00468690
  2:   0.00071876   0.00432181  -0.00872037
  3:  -0.00288982   0.00065565  -0.00103969
  4:   0.00230568  -0.00146564  -0.00054249
  5:   0.00021264   0.00118002   0.00251616
  6:  -0.00911231  -0.00084219   0.00780082
  7:   0.00458896  -0.00060971  -0.01594956
  8:   0.00160859   0.00043167   0.00172808
  9:  -0.00125123   0.00037839   0.00366921
 10:   0.00069864   0.00284481  -0.00138064
 11:   0.00234083  -0.00101838  -0.00055061
 12:  -0.01971094  -0.01582211   0.00347194
 13:   0.01829450   0.01686137   0.00018738
 14:  -0.00441143   0.00384896   0.00689569
 15:  -0.00115276  -0.00495808  -0.00086294
 16:   0.00381332  -0.00142782  -0.00023600
 17:   0.00024699   0.00133187  -0.00467598

-----------------------------------
NORM OF THE MP2 GRADIENT:  0.047374
-----------------------------------

-------------------------   --------------------
FINAL SINGLE POINT ENERGY      -346.540078638297
-------------------------   --------------------


                            ***************************************
                            *     ORCA property calculations      *
                            ***************************************

                                    ---------------------
                                    Active property flags
                                    ---------------------
   (+) Dipole Moment


------------------------------------------------------------------------------
                       ORCA ELECTRIC PROPERTIES CALCULATION
------------------------------------------------------------------------------

Dipole Moment Calculation                       ... on
Quadrupole Moment Calculation                   ... off
Polarizability Calculation                      ... off
GBWName                                         ... 12meoh.boyd.etal.mol2,4,5-orca.engrad-mp2.def2tzvp.frozencore.gbw
Electron density file                           ... 12meoh.boyd.etal.mol2,4,5-orca.engrad-mp2.def2tzvp.frozencore.scfp
The origin for moment calculation is the CENTER OF MASS  = (-3.183856,  3.274532 -0.075002)

-------------
DIPOLE MOMENT
-------------
                                X             Y             Z
Electronic contribution:     -1.79827      -1.07919       1.24601
Nuclear contribution   :      4.05055       1.20315      -2.48530
                        -----------------------------------------
Total Dipole Moment    :      2.25228       0.12397      -1.23929
                        -----------------------------------------
Magnitude (a.u.)       :      2.57371
Magnitude (Debye)      :      6.54185



--------------------
Rotational spectrum 
--------------------
 
Rotational constants in cm-1:     0.082830     0.052535     0.035964 
Rotational constants in MHz :  2483.170547  1574.964042  1078.178226 

 Dipole components along the rotational axes: 
x,y,z [a.u.] :    -2.242370     0.217561    -1.244358 
x,y,z [Debye]:    -5.699651     0.552996    -3.162907 

 

                         *** MP2 UNRELAXED DENSITY ***

------------------------------------------------------------------------------
                       ORCA ELECTRIC PROPERTIES CALCULATION
------------------------------------------------------------------------------

Dipole Moment Calculation                       ... on
Quadrupole Moment Calculation                   ... off
Polarizability Calculation                      ... off
GBWName                                         ... 12meoh.boyd.etal.mol2,4,5-orca.engrad-mp2.def2tzvp.frozencore.gbw
Electron density file                           ... 12meoh.boyd.etal.mol2,4,5-orca.engrad-mp2.def2tzvp.frozencore.pmp2ur
The origin for moment calculation is the CENTER OF MASS  = (-3.183856,  3.274532 -0.075002)

-------------
DIPOLE MOMENT
-------------
                                X             Y             Z
Electronic contribution:     -1.83072      -1.09256       1.26259
Nuclear contribution   :      4.05055       1.20315      -2.48530
                        -----------------------------------------
Total Dipole Moment    :      2.21984       0.11059      -1.22271
                        -----------------------------------------
Magnitude (a.u.)       :      2.53671
Magnitude (Debye)      :      6.44782



--------------------
Rotational spectrum 
--------------------
 
Rotational constants in cm-1:     0.082830     0.052535     0.035964 
Rotational constants in MHz :  2483.170547  1574.964042  1078.178226 

 Dipole components along the rotational axes: 
x,y,z [a.u.] :    -2.215755     0.214656    -1.216254 
x,y,z [Debye]:    -5.632001     0.545612    -3.091473 

 

                           *** MP2 RELAXED DENSITY ***

------------------------------------------------------------------------------
                       ORCA ELECTRIC PROPERTIES CALCULATION
------------------------------------------------------------------------------

Dipole Moment Calculation                       ... on
Quadrupole Moment Calculation                   ... off
Polarizability Calculation                      ... off
GBWName                                         ... 12meoh.boyd.etal.mol2,4,5-orca.engrad-mp2.def2tzvp.frozencore.gbw
Electron density file                           ... 12meoh.boyd.etal.mol2,4,5-orca.engrad-mp2.def2tzvp.frozencore.pmp2re
The origin for moment calculation is the CENTER OF MASS  = (-3.183856,  3.274532 -0.075002)

-------------
DIPOLE MOMENT
-------------
                                X             Y             Z
Electronic contribution:     -1.85579      -1.10977       1.27927
Nuclear contribution   :      4.05055       1.20315      -2.48530
                        -----------------------------------------
Total Dipole Moment    :      2.19476       0.09338      -1.20604
                        -----------------------------------------
Magnitude (a.u.)       :      2.50603
Magnitude (Debye)      :      6.36983



--------------------
Rotational spectrum 
--------------------
 
Rotational constants in cm-1:     0.082830     0.052535     0.035964 
Rotational constants in MHz :  2483.170547  1574.964042  1078.178226 

 Dipole components along the rotational axes: 
x,y,z [a.u.] :    -2.196046     0.216345    -1.187761 
x,y,z [Debye]:    -5.581904     0.549905    -3.019048 

 

Timings for individual modules:

Sum of individual times         ...       95.208 sec (=   1.587 min)
GTO integral calculation        ...        1.448 sec (=   0.024 min)   1.5 %
SCF iterations                  ...       20.223 sec (=   0.337 min)  21.2 %
MP2 module                      ...       73.537 sec (=   1.226 min)  77.2 %
                             ****ORCA TERMINATED NORMALLY****
TOTAL RUN TIME: 0 days 0 hours 1 minutes 36 seconds 69 msec
