52
Energy:  -1525.40252035
O    1.15939430   1.27963324  -2.91295130
H    1.07940940   0.57712965  -2.26772036
H    0.49109064   1.91607133  -2.65888710
O   -0.21105728  -2.78207186  -2.00706576
H   -0.70231540  -2.25296145  -2.63550787
H    0.28852391  -2.14533791  -1.49596856
O   -3.02531885  -0.61429398   0.08544816
H   -3.01894427  -0.44338309   1.02724468
H   -2.17937226  -0.28963953  -0.22310606
O   -1.15998496  -0.46405969  -3.27004033
H   -1.04084156  -0.25509457  -2.34355759
H   -0.43293806  -0.02421267  -3.71068673
O    2.12155667   1.93546913  -0.39209423
H    2.04090877   1.85870146  -1.34279634
H    1.52712936   1.26966162  -0.04627870
O    2.39787481   0.54252152   2.65263916
H    3.15135909   0.59689510   2.06481537
H    1.64061140   0.49931897   2.06875773
O   -0.75714067   2.83314683  -1.71776276
H   -0.81713930   1.93226322  -1.39989372
H   -0.32997487   3.31062139  -1.00658116
O   -2.57449863  -0.04940031   2.71851031
H   -1.89074052  -0.71659133   2.65882077
H   -2.17197104   0.73984273   2.35615852
O    2.92795275  -1.86626376   0.43659212
H    2.21328594  -1.41188761  -0.00953064
H    2.58943644  -2.04235256   1.31444820
O    4.22606969   0.51441670   0.61298487
H    3.88991556  -0.37516546   0.50400863
H    3.56488182   1.07262554   0.20375957
O   -1.93782103  -3.13945729   0.12642995
H   -1.30293094  -3.10319044  -0.58899379
H   -2.39073093  -2.29704979   0.08829761
O   -0.58687497  -1.84513217   2.16519063
H   -0.22401526  -1.14431339   1.62351018
H   -1.00012073  -2.44151197   1.54085825
O   -1.40940779   2.00942016   1.34726691
H   -1.96422548   2.06049663   0.56893513
H   -0.73782401   1.36582699   1.12144640
O   -3.87533432  -0.39612716  -2.58195556
H   -2.99441169  -0.36172384  -2.95481422
H   -3.73389246  -0.45416293  -1.63704398
O    0.43304690   3.85479323   0.51917333
H   -0.20984220   3.29566699   0.95541102
H    1.13860878   3.25859880   0.26824210
O    1.99489140  -2.11083391   3.02455799
H    2.19915576  -1.17568337   3.02574040
H    1.07218608  -2.15461651   2.77369982
C    0.04622950  -0.35352099  -0.21661047
O    1.10970774  -0.60446068  -1.04304962
O   -0.86900506   0.42558148  -0.87421508
O    0.48400651   0.30257256   0.90395758
