52
Energy:  -1521.31789337
O    1.43625831  -0.50742731  -2.69699194
H    1.25136961  -0.70065128  -1.77790951
H    0.73513219   0.08750758  -2.96289885
O   -1.04761392  -3.09597411  -0.60589395
H   -0.91350178  -2.14826851  -0.59589997
H   -0.17680326  -3.46319777  -0.45401429
O   -2.95770373  -0.11879053   0.51250288
H   -2.82089576   0.49925087   1.23051419
H   -2.08604605  -0.24988602   0.13932905
O    0.27597318  -2.96528638  -3.05323132
H   -0.38353531  -2.94408424  -2.35981164
H    0.67727852  -2.09659911  -3.02939223
O    2.31290678   1.40199828  -0.86711668
H    2.33267389   0.80972947  -1.61882059
H    1.62686791   1.04838704  -0.30095273
O    2.20349574  -1.05274090   2.38845238
H    1.50535947  -0.74177602   2.96476692
H    1.81796724  -1.03364560   1.51253287
O   -0.70891593   1.18397908  -2.72728897
H   -0.68733931   0.57536484  -1.98880742
H   -0.26096574   1.96666671  -2.40639561
O   -2.41555179   1.62781681   2.53212186
H   -1.75001535   1.00761276   2.82984659
H   -1.98564385   2.12575057   1.83679965
O    3.91012887   0.82531411   1.33017568
H    3.40477305   0.12073300   1.73565415
H    3.45025929   1.00988533   0.51122190
O    1.78920670   2.23920191   2.36310967
H    1.16625272   1.75024240   1.82544919
H    2.64494481   1.88551602   2.12051860
O   -2.24492051  -2.38185013   1.86371605
H   -1.73501238  -2.77585742   1.15591396
H   -2.63701650  -1.60168235   1.47150334
O   -0.59986941  -0.36163901   3.03101007
H   -0.23419366  -0.08122820   2.19203279
H   -1.09214008  -1.15620326   2.82468732
O   -1.32294366   2.61903693   0.22041418
H   -1.99538024   2.32653112  -0.39481037
H   -0.74699666   1.86160592   0.32441019
O   -3.15281275   1.64674789  -1.56851178
H   -3.20401190   0.93890764  -0.92619357
H   -2.38330300   1.43580255  -2.09727323
O    0.55538485   3.32922612  -1.61826179
H    1.26466672   2.74803402  -1.34373160
H   -0.09506146   3.26080980  -0.91935504
O    1.62384385  -3.67687870  -0.75892614
H    1.34581908  -3.56115609  -1.66751975
H    1.62654310  -2.79188897  -0.39421015
C    0.10335709  -0.53109384   0.25663044
O    1.28611086  -1.10197089  -0.13343530
O   -0.74982434  -0.47192458  -0.81373362
O    0.33998975   0.73542089   0.72324121
