52
Energy:  -1521.82165246
O    1.57543133  -0.83370379  -2.24864521
H    1.28434626  -0.83858103  -1.33679130
H    0.89975998  -0.34024583  -2.71361760
O   -1.08455762  -2.99626575  -0.42416836
H   -0.93864442  -2.05176679  -0.47767444
H   -0.32586229  -3.32954794   0.05493103
O   -2.98771433   0.27269942   0.36325771
H   -2.79242024   0.74147039   1.17464285
H   -2.13146144   0.00862791   0.02661386
O    0.75468652  -3.41144114  -2.41409197
H   -0.04538988  -3.31321383  -1.89789336
H    1.11147376  -2.52529362  -2.47473258
O    2.25885922   1.42894886  -0.90141028
H    2.31052451   0.67020727  -1.48267937
H    1.53889322   1.22531904  -0.30440467
O    2.32313844  -0.19900620   2.70904308
H    1.99364032   0.67881019   2.90165986
H    1.84359696  -0.46883321   1.92580289
O   -0.56201548   0.79556681  -2.84352195
H   -0.59153491   0.37867436  -1.98238250
H   -0.11561293   1.62857787  -2.69170239
O   -1.71562769   1.16014569   2.61401185
H   -1.67706136   0.26505992   2.95100734
H   -1.03860230   1.19147155   1.93807756
O    3.99569767   1.32409142   1.18181396
H    3.57408962   0.64757238   1.71172008
H    3.47975557   1.35410015   0.37612478
O    1.75001195   2.46213074   2.35166612
H    1.11021562   2.03024654   1.78565504
H    2.59251762   2.30424887   1.92565044
O   -3.23555161  -2.33290899   1.11573612
H   -2.53585246  -2.69431781   0.57164366
H   -3.28443521  -1.41104603   0.86273230
O   -1.33076810  -1.54877789   2.92143108
H   -0.66567889  -1.25134390   2.30060806
H   -2.03554532  -1.89185697   2.37205173
O   -1.21432814   2.97829019  -0.43338323
H   -1.92537155   2.56654915  -0.92442134
H   -0.74577554   2.24705802  -0.03090364
O   -3.04371317   1.64523458  -1.99205336
H   -3.14792944   1.12772869  -1.19358077
H   -2.25352987   1.29516083  -2.40350271
O    0.71661774   3.14746814  -2.29262299
H    1.37543101   2.62737560  -1.83251357
H    0.01766886   3.27178977  -1.65055878
O    1.51820150  -3.55289465   0.24122603
H    1.47277558  -3.60766271  -0.71332559
H    1.47466447  -2.61553839   0.43016948
C   -0.00285911  -0.25026788   0.51617279
O    1.19830217  -0.90044466   0.40921435
O   -0.72925051  -0.44190284  -0.62957167
O    0.21825664   1.08973860   0.69857523
