
                                 *****************
                                 * O   R   C   A *
                                 *****************

           --- An Ab Initio, DFT and Semiempirical electronic structure package ---

                  #######################################################
                  #                        -***-                        #
                  #          Department of theory and spectroscopy      #
                  #               Directorship: Frank Neese             #
                  #        Max Planck Institute fuer Kohlenforschung    #
                  #                Kaiser Wilhelm Platz 1               #
                  #                 D-45470 Muelheim/Ruhr               #
                  #                      Germany                        #
                  #                                                     #
                  #                  All rights reserved                #
                  #                        -***-                        #
                  #######################################################


                         Program Version 4.2.0 -  RELEASE  -


 With contributions from (in alphabetic order):
   Daniel Aravena         : Magnetic Suceptibility
   Michael Atanasov       : Ab Initio Ligand Field Theory (pilot matlab implementation)
   Alexander A. Auer      : GIAO ZORA, VPT2
   Ute Becker             : Parallelization
   Giovanni Bistoni       : ED, misc. LED, open-shell LED, HFLED
   Martin Brehm           : Molecular dynamics
   Dmytro Bykov           : SCF Hessian
   Vijay G. Chilkuri      : MRCI spin determinant printing, contributions to CSF-ICE
   Dipayan Datta          : RHF DLPNO-CCSD density
   Achintya Kumar Dutta   : EOM-CC, STEOM-CC
   Dmitry Ganyushin       : Spin-Orbit,Spin-Spin,Magnetic field MRCI
   Miquel Garcia          : C-PCM Hessian, Gaussian charge scheme
   Yang Guo               : DLPNO-NEVPT2, CIM, IAO-localization
   Andreas Hansen         : Spin unrestricted coupled pair/coupled cluster methods
   Benjamin Helmich-Paris : CASSCF linear response (MC-RPA)
   Lee Huntington         : MR-EOM, pCC
   Robert Izsak           : Overlap fitted RIJCOSX, COSX-SCS-MP3, EOM
   Christian Kollmar      : KDIIS, OOCD, Brueckner-CCSD(T), CCSD density
   Simone Kossmann        : Meta GGA functionals, TD-DFT gradient, OOMP2, MP2 Hessian
   Martin Krupicka        : AUTO-CI
   Lucas Lang             : DCDCAS
   Dagmar Lenk            : GEPOL surface, SMD
   Dimitrios Liakos       : Extrapolation schemes; Compound Job, initial MDCI parallelization
   Dimitrios Manganas     : Further ROCIS development; embedding schemes
   Dimitrios Pantazis     : SARC Basis sets
   Taras Petrenko         : DFT Hessian,TD-DFT gradient, ASA, ECA, R-Raman, ABS, FL, XAS/XES, NRVS
   Peter Pinski           : DLPNO-MP2, DLPNO-MP2 Gradient
   Christoph Reimann      : Effective Core Potentials
   Marius Retegan         : Local ZFS, SOC
   Christoph Riplinger    : Optimizer, TS searches, QM/MM, DLPNO-CCSD(T), (RO)-DLPNO pert. Triples
   Tobias Risthaus        : Range-separated hybrids, TD-DFT gradient, RPA, STAB
   Michael Roemelt        : Original ROCIS implementation
   Masaaki Saitow         : Open-shell DLPNO-CCSD energy and density
   Barbara Sandhoefer     : DKH picture change effects
   Avijit Sen             : IP-ROCIS
   Kantharuban Sivalingam : CASSCF convergence, NEVPT2, FIC-MRCI
   Bernardo de Souza      : ESD, SOC TD-DFT
   Georgi Stoychev        : AutoAux, RI-MP2 NMR
   Willem Van den Heuvel  : Paramagnetic NMR
   Boris Wezisla          : Elementary symmetry handling
   Frank Wennmohs         : Technical directorship


 We gratefully acknowledge several colleagues who have allowed us to
 interface, adapt or use parts of their codes:
   Stefan Grimme, W. Hujo, H. Kruse,             : VdW corrections, initial TS optimization,
                  C. Bannwarth                     DFT functionals, gCP, sTDA/sTD-DF
   Ed Valeev, F. Pavosevic, A. Kumar             : LibInt (2-el integral package), F12 methods
   Garnet Chan, S. Sharma, J. Yang, R. Olivares  : DMRG
   Ulf Ekstrom                                   : XCFun DFT Library
   Mihaly Kallay                                 : mrcc  (arbitrary order and MRCC methods)
   Andreas Klamt, Michael Diedenhofen            : otool_cosmo (COSMO solvation model)
   Jiri Pittner, Ondrej Demel                    : Mk-CCSD
   Frank Weinhold                                : gennbo (NPA and NBO analysis)
   Christopher J. Cramer and Donald G. Truhlar   : smd solvation model
   Lars Goerigk                                  : TD-DFT with DH, B97 family of functionals
   V. Asgeirsson, H. Jonsson                     : NEB implementation
   FAccTs GmbH                                   : IRC, NEB, NEB-TS, Multilevel, MM, QM/MM, CI optimization
   S Lehtola, MJT Oliveira, MAL Marques          : LibXC Library


 Your calculation uses the libint2 library for the computation of 2-el integrals
 For citations please refer to: http://libint.valeyev.net

 Your ORCA version has been built with support for libXC version: 4.2.3
 For citations please refer to: https://tddft.org/programs/libxc/

 This ORCA versions uses:
   CBLAS   interface :  Fast vector & matrix operations
   LAPACKE interface :  Fast linear algebra routines
   SCALAPACK package :  Parallel linear algebra routines


----- Orbital basis set information -----
Your calculation utilizes the basis: def2-TZVP
   F. Weigend and R. Ahlrichs, Phys. Chem. Chem. Phys. 7, 3297 (2005).

================================================================================
                                        WARNINGS
                       Please study these warnings very carefully!
================================================================================


WARNING: The frozen-core approximation for MP2-gradient calculations is turned on by default.

INFO   : the flag for use of LIBINT has been found!

================================================================================
                                       INPUT FILE
================================================================================
NAME = 12h2o.su.etal.mol0,3,4,5,6,7-orca.engrad-mp2.def2tzvp.frozencore.inp
|  1> # 12h2o.su.etal.mol0,3,4,5,6,7
|  2> ! MP2 def2-TZVP EnGrad TightSCF
|  3> 
|  4> %pal
|  5>     nprocs 6
|  6> end
|  7> 
|  8> %maxcore 8000
|  9> 
| 10> %scf
| 11>     ConvForced true
| 12> end
| 13> 
| 14> *xyz 0 1
| 15> O   1.794470000   0.923410000   2.768350000
| 16> H   2.338250000   1.359750000   3.430940000
| 17> H   0.879480000   1.303000000   2.865760000
| 18> O  -1.752130000  -0.741530000  -2.896280000
| 19> H  -2.036450000  -0.920500000  -1.984040000
| 20> H  -0.921210000  -1.242140000  -2.984230000
| 21> O  -0.885520000   1.737840000   0.052730000
| 22> H  -1.032320000   2.090180000  -0.841890000
| 23> H  -1.284090000   0.839590000   0.017130000
| 24> O   0.885520000  -1.737840000   0.052730000
| 25> H   1.284090000  -0.839590000   0.017130000
| 26> H   1.032320000  -2.090180000  -0.841890000
| 27> O   1.737840000   0.885520000  -0.052730000
| 28> H   2.090180000   1.032320000   0.841890000
| 29> H   0.839590000   1.284090000  -0.017130000
| 30> O  -1.737840000  -0.885520000  -0.052730000
| 31> H  -2.090180000  -1.032320000   0.841890000
| 32> H  -0.839590000  -1.284090000  -0.017130000
| 33> *
| 34> 
| 35>                          ****END OF INPUT****
================================================================================

                     *******************************
                     * Energy+Gradient Calculation *
                     *******************************

---------------------------------
CARTESIAN COORDINATES (ANGSTROEM)
---------------------------------
  O      1.794470    0.923410    2.768350
  H      2.338250    1.359750    3.430940
  H      0.879480    1.303000    2.865760
  O     -1.752130   -0.741530   -2.896280
  H     -2.036450   -0.920500   -1.984040
  H     -0.921210   -1.242140   -2.984230
  O     -0.885520    1.737840    0.052730
  H     -1.032320    2.090180   -0.841890
  H     -1.284090    0.839590    0.017130
  O      0.885520   -1.737840    0.052730
  H      1.284090   -0.839590    0.017130
  H      1.032320   -2.090180   -0.841890
  O      1.737840    0.885520   -0.052730
  H      2.090180    1.032320    0.841890
  H      0.839590    1.284090   -0.017130
  O     -1.737840   -0.885520   -0.052730
  H     -2.090180   -1.032320    0.841890
  H     -0.839590   -1.284090   -0.017130

----------------------------
CARTESIAN COORDINATES (A.U.)
----------------------------
  NO LB      ZA    FRAG     MASS         X           Y           Z
   0 O     8.0000    0    15.999    3.391057    1.744992    5.231423
   1 H     1.0000    0     1.008    4.418652    2.569555    6.483537
   2 H     1.0000    0     1.008    1.661976    2.462313    5.415502
   3 O     8.0000    0    15.999   -3.311046   -1.401289   -5.473176
   4 H     1.0000    0     1.008   -3.848333   -1.739493   -3.749292
   5 H     1.0000    0     1.008   -1.740835   -2.347304   -5.639377
   6 O     8.0000    0    15.999   -1.673390    3.284042    0.099645
   7 H     1.0000    0     1.008   -1.950802    3.949868   -1.590942
   8 H     1.0000    0     1.008   -2.426578    1.586595    0.032371
   9 O     8.0000    0    15.999    1.673390   -3.284042    0.099645
  10 H     1.0000    0     1.008    2.426578   -1.586595    0.032371
  11 H     1.0000    0     1.008    1.950802   -3.949868   -1.590942
  12 O     8.0000    0    15.999    3.284042    1.673390   -0.099645
  13 H     1.0000    0     1.008    3.949868    1.950802    1.590942
  14 H     1.0000    0     1.008    1.586595    2.426578   -0.032371
  15 O     8.0000    0    15.999   -3.284042   -1.673390   -0.099645
  16 H     1.0000    0     1.008   -3.949868   -1.950802    1.590942
  17 H     1.0000    0     1.008   -1.586595   -2.426578   -0.032371

--------------------------------
INTERNAL COORDINATES (ANGSTROEM)
--------------------------------
 O      0   0   0     0.000000000000     0.00000000     0.00000000
 H      1   0   0     0.961828878803     0.00000000     0.00000000
 H      1   2   0     0.995381322057   106.21731035     0.00000000
 O      3   1   2     6.656318732948    99.29837960   164.71437028
 H      4   3   1     0.972136791249    50.19793542   121.30203245
 H      4   3   1     0.974050112161    84.18963930     7.83137870
 O      3   1   2     3.349245975813   116.85538783   143.82107740
 H      7   3   1     0.972645187106   154.03893681   304.15813038
 H      7   3   1     0.983350632989    97.20424340    87.67157074
 O      9   7   3     3.369216573181   115.93827062   304.27214190
 H     10   9   7     0.983350632989    64.01297461   355.38487433
 H     10   9   7     0.972645187106   111.38238039   260.12892927
 O     11  10   9     1.785153773264   170.81379649   358.44265882
 H     13  11  10     0.972645187106   101.65007623   109.44492584
 H     13  11  10     0.983350632989    99.09581498     3.33484705
 O      9   7   3     1.785153773264   170.81379649   301.36914736
 H     16   9   7     0.972645187106   101.65007623   109.44492584
 H     16   9   7     0.983350632989    99.09581498     3.33484705

---------------------------
INTERNAL COORDINATES (A.U.)
---------------------------
 O      0   0   0     0.000000000000     0.00000000     0.00000000
 H      1   0   0     1.817593168635     0.00000000     0.00000000
 H      1   2   0     1.880998097508   106.21731035     0.00000000
 O      3   1   2    12.578619465362    99.29837960   164.71437028
 H      4   3   1     1.837072300170    50.19793542   121.30203245
 H      4   3   1     1.840687952699    84.18963930     7.83137870
 O      3   1   2     6.329157649425   116.85538783   143.82107740
 H      7   3   1     1.838033029106   154.03893681   304.15813038
 H      7   3   1     1.858263389967    97.20424340    87.67157074
 O      9   7   3     6.366896609181   115.93827062   304.27214190
 H     10   9   7     1.858263389967    64.01297461   355.38487433
 H     10   9   7     1.838033029106   111.38238039   260.12892927
 O     11  10   9     3.373451738406   170.81379649   358.44265882
 H     13  11  10     1.838033029106   101.65007623   109.44492584
 H     13  11  10     1.858263389967    99.09581498     3.33484705
 O      9   7   3     3.373451738406   170.81379649   301.36914736
 H     16   9   7     1.838033029106   101.65007623   109.44492584
 H     16   9   7     1.858263389967    99.09581498     3.33484705

---------------------
BASIS SET INFORMATION
---------------------
There are 2 groups of distinct atoms

 Group   1 Type O   : 11s6p2d1f contracted to 5s3p2d1f pattern {62111/411/11/1}
 Group   2 Type H   : 5s1p contracted to 3s1p pattern {311/1}

Atom   0O    basis set group =>   1
Atom   1H    basis set group =>   2
Atom   2H    basis set group =>   2
Atom   3O    basis set group =>   1
Atom   4H    basis set group =>   2
Atom   5H    basis set group =>   2
Atom   6O    basis set group =>   1
Atom   7H    basis set group =>   2
Atom   8H    basis set group =>   2
Atom   9O    basis set group =>   1
Atom  10H    basis set group =>   2
Atom  11H    basis set group =>   2
Atom  12O    basis set group =>   1
Atom  13H    basis set group =>   2
Atom  14H    basis set group =>   2
Atom  15O    basis set group =>   1
Atom  16H    basis set group =>   2
Atom  17H    basis set group =>   2


           ************************************************************
           *        Program running with 6 parallel MPI-processes     *
           *              working on a common directory               *
           ************************************************************
------------------------------------------------------------------------------
                           ORCA GTO INTEGRAL CALCULATION
------------------------------------------------------------------------------

                         BASIS SET STATISTICS AND STARTUP INFO

 # of primitive gaussian shells          ...  192
 # of primitive gaussian functions       ...  372
 # of contracted shells                  ...  114
 # of contracted basis functions         ...  258
 Highest angular momentum                ...    3
 Maximum contraction depth               ...    6
 Integral package used                   ... LIBINT
 Integral threshhold            Thresh   ...  2.500e-11
 Primitive cut-off              TCut     ...  2.500e-12


------------------------------ INTEGRAL EVALUATION ----------------------------


 * One electron integrals 
 Pre-screening matrix                    ... done
 Shell pair data                         ... done (   0.001 sec)



           ************************************************************
           *        Program running with 6 parallel MPI-processes     *
           *              working on a common directory               *
           ************************************************************
-------------------------------------------------------------------------------
                                 ORCA SCF
-------------------------------------------------------------------------------

------------
SCF SETTINGS
------------
Hamiltonian:
 Ab initio Hamiltonian  Method          .... Hartree-Fock(GTOs)


General Settings:
 Integral files         IntName         .... 12h2o.su.etal.mol0,3,4,5,6,7-orca.engrad-mp2.def2tzvp.frozencore
 Hartree-Fock type      HFTyp           .... RHF
 Total Charge           Charge          ....    0
 Multiplicity           Mult            ....    1
 Number of Electrons    NEL             ....   60
 Basis Dimension        Dim             ....  258
 Nuclear Repulsion      ENuc            ....    280.4825853412 Eh

Convergence Acceleration:
 DIIS                   CNVDIIS         .... on
   Start iteration      DIISMaxIt       ....    12
   Startup error        DIISStart       ....  0.200000
   # of expansion vecs  DIISMaxEq       ....     5
   Bias factor          DIISBfac        ....   1.050
   Max. coefficient     DIISMaxC        ....  10.000
 Newton-Raphson         CNVNR           .... off
 SOSCF                  CNVSOSCF        .... on
   Start iteration      SOSCFMaxIt      ....   150
   Startup grad/error   SOSCFStart      ....  0.003300
 Level Shifting         CNVShift        .... on
   Level shift para.    LevelShift      ....    0.2500
   Turn off err/grad.   ShiftErr        ....    0.0010
 Zerner damping         CNVZerner       .... off
 Static damping         CNVDamp         .... on
   Fraction old density DampFac         ....    0.7000
   Max. Damping (<1)    DampMax         ....    0.9800
   Min. Damping (>=0)   DampMin         ....    0.0000
   Turn off err/grad.   DampErr         ....    0.1000
 Fernandez-Rico         CNVRico         .... off

SCF Procedure:
 Maximum # iterations   MaxIter         ....   125
 SCF integral mode      SCFMode         .... Direct
   Integral package                     .... LIBINT
 Reset frequency        DirectResetFreq ....    20
 Integral Threshold     Thresh          ....  2.500e-11 Eh
 Primitive CutOff       TCut            ....  2.500e-12 Eh

Convergence Tolerance:
 Convergence Check Mode ConvCheckMode   .... Total+1el-Energy
 Convergence forced     ConvForced      .... 1
 Energy Change          TolE            ....  1.000e-08 Eh
 1-El. energy change                    ....  1.000e-05 Eh
 Orbital Gradient       TolG            ....  1.000e-05
 Orbital Rotation angle TolX            ....  1.000e-05
 DIIS Error             TolErr          ....  5.000e-07


Diagonalization of the overlap matrix:
Smallest eigenvalue                        ... 3.070e-03
Time for diagonalization                   ...    0.010 sec
Threshold for overlap eigenvalues          ... 1.000e-08
Number of eigenvalues below threshold      ... 0
Time for construction of square roots      ...    0.005 sec
Total time needed                          ...    0.015 sec

-------------------
DFT GRID GENERATION
-------------------

General Integration Accuracy     IntAcc      ...  4.340
Radial Grid Type                 RadialGrid  ... Gauss-Chebyshev
Angular Grid (max. acc.)         AngularGrid ... Lebedev-110
Angular grid pruning method      GridPruning ... 3 (G Style)
Weight generation scheme         WeightScheme... Becke
Basis function cutoff            BFCut       ...    1.0000e-11
Integration weight cutoff        WCut        ...    1.0000e-14
Grids for H and He will be reduced by one unit

# of grid points (after initial pruning)     ...  19824 (   0.0 sec)
# of grid points (after weights+screening)   ...  18666 (   0.0 sec)
nearest neighbour list constructed           ...    0.0 sec
Grid point re-assignment to atoms done       ...    0.0 sec
Grid point division into batches done        ...    0.0 sec
Reduced shell lists constructed in    0.0 sec

Total number of grid points                  ...    18666
Total number of batches                      ...      301
Average number of points per batch           ...       62
Average number of grid points per atom       ...     1037
Average number of shells per batch           ...    52.12 (45.72%)
Average number of basis functions per batch  ...   103.50 (40.12%)
Average number of large shells per batch     ...    36.27 (69.59%)
Average number of large basis fcns per batch ...    70.85 (68.45%)
Maximum spatial batch extension              ...  14.53, 20.15, 12.98 au
Average spatial batch extension              ...   0.66,  0.77,  0.64 au

Time for grid setup =    0.057 sec

------------------------------
INITIAL GUESS: MODEL POTENTIAL
------------------------------
Loading Hartree-Fock densities                     ... done
Calculating cut-offs                               ... done
Setting up the integral package                    ... done
Initializing the effective Hamiltonian             ... done
Starting the Coulomb interaction                   ... done (   0.0 sec)
Reading the grid                                   ... done
Mapping shells                                     ... done
Starting the XC term evaluation                    ... done (   0.0 sec)
Transforming the Hamiltonian                       ... done (   0.0 sec)
Diagonalizing the Hamiltonian                      ... done (   0.0 sec)
Back transforming the eigenvectors                 ... done (   0.0 sec)
Now organizing SCF variables                       ... done
                      ------------------
                      INITIAL GUESS DONE (   0.2 sec)
                      ------------------
--------------
SCF ITERATIONS
--------------
ITER       Energy         Delta-E        Max-DP      RMS-DP      [F,P]     Damp
               ***  Starting incremental Fock matrix formation  ***
  0   -455.8651901684   0.000000000000 0.04339947  0.00096069  0.3444446 0.7000
  1   -456.0680700285  -0.202879860125 0.02869054  0.00066633  0.2162527 0.7000
                               ***Turning on DIIS***
  2   -456.1757402256  -0.107670197126 0.01639812  0.00037288  0.1636544 0.7000
  3   -457.1633029882  -0.987562762551 0.00759652  0.00017056  0.1218265 0.7000
  4   -456.9641503817   0.199152606488 0.01701965  0.00039308  0.0861449 0.0000
  5   -456.4219368334   0.542213548288 0.00216982  0.00006400  0.0056849 0.0000
                      *** Initiating the SOSCF procedure ***
                           *** Shutting down DIIS ***
                      *** Re-Reading the Fockian *** 
                      *** Removing any level shift *** 
ITER      Energy       Delta-E        Grad      Rot      Max-DP    RMS-DP
  6   -456.39254473   0.0293921079  0.000729  0.000729  0.001458  0.000040
               *** Restarting incremental Fock matrix formation ***
  7   -456.38381494   0.0087297846  0.000288  0.000378  0.000708  0.000018
  8   -456.38382398  -0.0000090366  0.000120  0.000293  0.000641  0.000016
  9   -456.38382625  -0.0000022734  0.000068  0.000047  0.000114  0.000003
 10   -456.38382644  -0.0000001888  0.000010  0.000009  0.000019  0.000000
                  ***Gradient check signals convergence***
              ***Rediagonalizing the Fockian in SOSCF/NRSCF***

               *****************************************************
               *                     SUCCESS                       *
               *           SCF CONVERGED AFTER  11 CYCLES          *
               *****************************************************


----------------
TOTAL SCF ENERGY
----------------

Total Energy       :         -456.38382644 Eh          -12418.83528 eV

Components:
Nuclear Repulsion  :          280.48258534 Eh            7632.31917 eV
Electronic Energy  :         -736.86641179 Eh          -20051.15445 eV
One Electron Energy:        -1188.99072298 Eh          -32354.08242 eV
Two Electron Energy:          452.12431119 Eh           12302.92798 eV

Virial components:
Potential Energy   :         -912.16412148 Eh          -24821.24763 eV
Kinetic Energy     :          455.78029504 Eh           12402.41235 eV
Virial Ratio       :            2.00132417


---------------
SCF CONVERGENCE
---------------

  Last Energy change         ...   -4.8295e-09  Tolerance :   1.0000e-08
  Last MAX-Density change    ...    7.0728e-06  Tolerance :   1.0000e-07
  Last RMS-Density change    ...    1.6907e-07  Tolerance :   5.0000e-09
  Last Orbital Gradient      ...    2.4667e-06  Tolerance :   1.0000e-05
  Last Orbital Rotation      ...    3.5003e-06  Tolerance :   1.0000e-05

             **** THE GBW FILE WAS UPDATED (12h2o.su.etal.mol0,3,4,5,6,7-orca.engrad-mp2.def2tzvp.frozencore.gbw) ****
             **** DENSITY FILE WAS UPDATED (12h2o.su.etal.mol0,3,4,5,6,7-orca.engrad-mp2.def2tzvp.frozencore.scfp) ****
             **** ENERGY FILE WAS UPDATED (12h2o.su.etal.mol0,3,4,5,6,7-orca.engrad-mp2.def2tzvp.frozencore.en.tmp) ****
             **** THE GBW FILE WAS UPDATED (12h2o.su.etal.mol0,3,4,5,6,7-orca.engrad-mp2.def2tzvp.frozencore.gbw) ****
             **** DENSITY FILE WAS UPDATED (12h2o.su.etal.mol0,3,4,5,6,7-orca.engrad-mp2.def2tzvp.frozencore.scfp) ****
----------------
ORBITAL ENERGIES
----------------

  NO   OCC          E(Eh)            E(eV) 
   0   2.0000     -20.590610      -560.2990 
   1   2.0000     -20.583798      -560.1136 
   2   2.0000     -20.563888      -559.5719 
   3   2.0000     -20.563690      -559.5664 
   4   2.0000     -20.542510      -558.9901 
   5   2.0000     -20.537220      -558.8462 
   6   2.0000      -1.377364       -37.4800 
   7   2.0000      -1.368762       -37.2459 
   8   2.0000      -1.349209       -36.7138 
   9   2.0000      -1.348877       -36.7048 
  10   2.0000      -1.324141       -36.0317 
  11   2.0000      -1.320385       -35.9295 
  12   2.0000      -0.738016       -20.0824 
  13   2.0000      -0.735467       -20.0131 
  14   2.0000      -0.718828       -19.5603 
  15   2.0000      -0.713369       -19.4118 
  16   2.0000      -0.699546       -19.0356 
  17   2.0000      -0.694030       -18.8855 
  18   2.0000      -0.630440       -17.1551 
  19   2.0000      -0.612984       -16.6801 
  20   2.0000      -0.595782       -16.2121 
  21   2.0000      -0.593007       -16.1365 
  22   2.0000      -0.567424       -15.4404 
  23   2.0000      -0.557662       -15.1748 
  24   2.0000      -0.529122       -14.3981 
  25   2.0000      -0.525353       -14.2956 
  26   2.0000      -0.510176       -13.8826 
  27   2.0000      -0.504843       -13.7375 
  28   2.0000      -0.488695       -13.2981 
  29   2.0000      -0.485991       -13.2245 
  30   0.0000       0.097184         2.6445 
  31   0.0000       0.118433         3.2227 
  32   0.0000       0.142902         3.8886 
  33   0.0000       0.164502         4.4763 
  34   0.0000       0.190003         5.1703 
  35   0.0000       0.205189         5.5835 
  36   0.0000       0.246007         6.6942 
  37   0.0000       0.265921         7.2361 
  38   0.0000       0.309085         8.4106 
  39   0.0000       0.312898         8.5144 
  40   0.0000       0.334516         9.1026 
  41   0.0000       0.339058         9.2262 
  42   0.0000       0.431248        11.7349 
  43   0.0000       0.469847        12.7852 
  44   0.0000       0.501212        13.6387 
  45   0.0000       0.507719        13.8157 
  46   0.0000       0.528684        14.3862 
  47   0.0000       0.533790        14.5252 
  48   0.0000       0.540214        14.7000 
  49   0.0000       0.548845        14.9348 
  50   0.0000       0.556381        15.1399 
  51   0.0000       0.566050        15.4030 
  52   0.0000       0.596422        16.2295 
  53   0.0000       0.605931        16.4882 
  54   0.0000       0.611603        16.6426 
  55   0.0000       0.615539        16.7497 
  56   0.0000       0.632423        17.2091 
  57   0.0000       0.636105        17.3093 
  58   0.0000       0.650693        17.7063 
  59   0.0000       0.706243        19.2178 
  60   0.0000       0.708678        19.2841 
  61   0.0000       0.723059        19.6754 
  62   0.0000       0.750252        20.4154 
  63   0.0000       0.756461        20.5844 
  64   0.0000       0.759906        20.6781 
  65   0.0000       0.799789        21.7634 
  66   0.0000       0.816611        22.2211 
  67   0.0000       0.828254        22.5379 
  68   0.0000       0.850880        23.1536 
  69   0.0000       0.862587        23.4722 
  70   0.0000       0.883081        24.0299 
  71   0.0000       0.906624        24.6705 
  72   0.0000       0.918063        24.9818 
  73   0.0000       0.944702        25.7067 
  74   0.0000       1.031680        28.0735 
  75   0.0000       1.070183        29.1212 
  76   0.0000       1.080349        29.3978 
  77   0.0000       1.146466        31.1969 
  78   0.0000       1.339173        36.4408 
  79   0.0000       1.377705        37.4893 
  80   0.0000       1.397107        38.0172 
  81   0.0000       1.411816        38.4175 
  82   0.0000       1.416413        38.5426 
  83   0.0000       1.422327        38.7035 
  84   0.0000       1.429743        38.9053 
  85   0.0000       1.449603        39.4457 
  86   0.0000       1.464764        39.8583 
  87   0.0000       1.478099        40.2211 
  88   0.0000       1.496427        40.7199 
  89   0.0000       1.542249        41.9667 
  90   0.0000       1.555696        42.3326 
  91   0.0000       1.582805        43.0703 
  92   0.0000       1.594051        43.3763 
  93   0.0000       1.597222        43.4626 
  94   0.0000       1.613045        43.8932 
  95   0.0000       1.642643        44.6986 
  96   0.0000       1.801596        49.0239 
  97   0.0000       1.832979        49.8779 
  98   0.0000       1.835684        49.9515 
  99   0.0000       1.848246        50.2933 
 100   0.0000       1.861521        50.6546 
 101   0.0000       1.882746        51.2321 
 102   0.0000       1.897430        51.6317 
 103   0.0000       1.936490        52.6946 
 104   0.0000       1.983198        53.9656 
 105   0.0000       1.990315        54.1592 
 106   0.0000       1.998075        54.3704 
 107   0.0000       2.036396        55.4131 
 108   0.0000       2.038569        55.4723 
 109   0.0000       2.082183        56.6591 
 110   0.0000       2.111012        57.4435 
 111   0.0000       2.129638        57.9504 
 112   0.0000       2.147182        58.4278 
 113   0.0000       2.215843        60.2962 
 114   0.0000       2.251549        61.2678 
 115   0.0000       2.270505        61.7836 
 116   0.0000       2.286898        62.2296 
 117   0.0000       2.297593        62.5207 
 118   0.0000       2.316684        63.0402 
 119   0.0000       2.330763        63.4233 
 120   0.0000       2.341077        63.7040 
 121   0.0000       2.366839        64.4050 
 122   0.0000       2.376824        64.6767 
 123   0.0000       2.387031        64.9544 
 124   0.0000       2.403038        65.3900 
 125   0.0000       2.438040        66.3425 
 126   0.0000       2.461199        66.9726 
 127   0.0000       2.470733        67.2321 
 128   0.0000       2.530669        68.8630 
 129   0.0000       2.532403        68.9102 
 130   0.0000       2.550470        69.4018 
 131   0.0000       2.588930        70.4484 
 132   0.0000       2.609632        71.0117 
 133   0.0000       2.621916        71.3459 
 134   0.0000       2.626649        71.4748 
 135   0.0000       2.642026        71.8932 
 136   0.0000       2.661415        72.4208 
 137   0.0000       2.666785        72.5669 
 138   0.0000       2.686296        73.0978 
 139   0.0000       2.716462        73.9187 
 140   0.0000       2.726214        74.1840 
 141   0.0000       2.741922        74.6115 
 142   0.0000       2.763983        75.2118 
 143   0.0000       2.773261        75.4643 
 144   0.0000       2.891934        78.6935 
 145   0.0000       2.922816        79.5339 
 146   0.0000       2.943006        80.0833 
 147   0.0000       2.952325        80.3368 
 148   0.0000       2.961133        80.5765 
 149   0.0000       2.974643        80.9441 
 150   0.0000       2.990325        81.3709 
 151   0.0000       2.999588        81.6229 
 152   0.0000       3.012292        81.9686 
 153   0.0000       3.042450        82.7893 
 154   0.0000       3.050547        83.0096 
 155   0.0000       3.081547        83.8532 
 156   0.0000       3.113830        84.7316 
 157   0.0000       3.145312        85.5883 
 158   0.0000       3.226683        87.8025 
 159   0.0000       3.243348        88.2560 
 160   0.0000       3.246089        88.3306 
 161   0.0000       3.271806        89.0304 
 162   0.0000       3.276984        89.1713 
 163   0.0000       3.348873        91.1275 
 164   0.0000       3.381795        92.0233 
 165   0.0000       3.448147        93.8289 
 166   0.0000       3.465907        94.3121 
 167   0.0000       3.487815        94.9083 
 168   0.0000       3.972391       108.0943 
 169   0.0000       4.052274       110.2680 
 170   0.0000       4.067622       110.6856 
 171   0.0000       4.100200       111.5721 
 172   0.0000       4.113485       111.9336 
 173   0.0000       4.143940       112.7623 
 174   0.0000       4.284480       116.5866 
 175   0.0000       4.319422       117.5375 
 176   0.0000       4.328176       117.7757 
 177   0.0000       4.338175       118.0478 
 178   0.0000       4.355982       118.5323 
 179   0.0000       4.365606       118.7942 
 180   0.0000       5.518114       150.1555 
 181   0.0000       5.526285       150.3779 
 182   0.0000       5.536773       150.6633 
 183   0.0000       5.536967       150.6685 
 184   0.0000       5.560247       151.3020 
 185   0.0000       5.565493       151.4448 
 186   0.0000       5.612679       152.7288 
 187   0.0000       5.646574       153.6511 
 188   0.0000       5.665004       154.1526 
 189   0.0000       5.668660       154.2521 
 190   0.0000       5.671268       154.3230 
 191   0.0000       5.694417       154.9530 
 192   0.0000       5.787438       157.4842 
 193   0.0000       5.796525       157.7315 
 194   0.0000       5.813782       158.2011 
 195   0.0000       5.815687       158.2529 
 196   0.0000       5.821081       158.3997 
 197   0.0000       5.829214       158.6210 
 198   0.0000       5.840340       158.9237 
 199   0.0000       5.843567       159.0116 
 200   0.0000       5.851688       159.2325 
 201   0.0000       5.863842       159.5633 
 202   0.0000       5.869274       159.7111 
 203   0.0000       5.882574       160.0730 
 204   0.0000       5.887101       160.1962 
 205   0.0000       5.892520       160.3436 
 206   0.0000       5.893452       160.3690 
 207   0.0000       5.894889       160.4081 
 208   0.0000       5.918346       161.0464 
 209   0.0000       5.920497       161.1049 
 210   0.0000       6.404658       174.2796 
 211   0.0000       6.456632       175.6939 
 212   0.0000       6.470639       176.0750 
 213   0.0000       6.477861       176.2716 
 214   0.0000       6.495857       176.7613 
 215   0.0000       6.509883       177.1429 
 216   0.0000       6.641358       180.7205 
 217   0.0000       6.679231       181.7511 
 218   0.0000       6.698925       182.2870 
 219   0.0000       6.730936       183.1581 
 220   0.0000       6.744462       183.5262 
 221   0.0000       6.764849       184.0809 
 222   0.0000       6.844629       186.2518 
 223   0.0000       6.849964       186.3970 
 224   0.0000       6.854204       186.5124 
 225   0.0000       6.869344       186.9244 
 226   0.0000       6.876723       187.1251 
 227   0.0000       6.883912       187.3208 
 228   0.0000       6.890211       187.4922 
 229   0.0000       6.893241       187.5746 
 230   0.0000       6.901600       187.8021 
 231   0.0000       6.905989       187.9215 
 232   0.0000       6.916633       188.2111 
 233   0.0000       6.927714       188.5127 
 234   0.0000       6.971589       189.7066 
 235   0.0000       6.983383       190.0275 
 236   0.0000       7.010413       190.7630 
 237   0.0000       7.020909       191.0486 
 238   0.0000       7.048374       191.7960 
 239   0.0000       7.097845       193.1422 
 240   0.0000       7.346186       199.8999 
 241   0.0000       7.367052       200.4677 
 242   0.0000       7.387404       201.0215 
 243   0.0000       7.456704       202.9072 
 244   0.0000       7.461972       203.0506 
 245   0.0000       7.470239       203.2755 
 246   0.0000       7.519537       204.6170 
 247   0.0000       7.551429       205.4848 
 248   0.0000       7.558873       205.6874 
 249   0.0000       7.584599       206.3874 
 250   0.0000       7.589911       206.5320 
 251   0.0000       7.618542       207.3111 
 252   0.0000      44.848910      1220.4009 
 253   0.0000      44.929458      1222.5927 
 254   0.0000      45.014321      1224.9020 
 255   0.0000      45.032396      1225.3938 
 256   0.0000      45.055687      1226.0276 
 257   0.0000      45.083324      1226.7796 

                    ********************************
                    * MULLIKEN POPULATION ANALYSIS *
                    ********************************

-----------------------
MULLIKEN ATOMIC CHARGES
-----------------------
   0 O :   -0.721063
   1 H :    0.360791
   2 H :    0.369641
   3 O :   -0.715465
   4 H :    0.387489
   5 H :    0.326452
   6 O :   -0.760585
   7 H :    0.367808
   8 H :    0.395619
   9 O :   -0.753100
  10 H :    0.410202
  11 H :    0.347077
  12 O :   -0.777915
  13 H :    0.392335
  14 H :    0.382982
  15 O :   -0.778752
  16 H :    0.368454
  17 H :    0.398031
Sum of atomic charges:    0.0000000

--------------------------------
MULLIKEN REDUCED ORBITAL CHARGES
--------------------------------
  0 O s       :     3.809918  s :     3.809918
      pz      :     1.718869  p :     4.884988
      px      :     1.361952
      py      :     1.804167
      dz2     :     0.004008  d :     0.024638
      dxz     :     0.004357
      dyz     :     0.005755
      dx2y2   :     0.002500
      dxy     :     0.008017
      f0      :     0.000083  f :     0.001520
      f+1     :     0.000329
      f-1     :     0.000188
      f+2     :     0.000071
      f-2     :     0.000351
      f+3     :     0.000100
      f-3     :     0.000397
  1 H s       :     0.593713  s :     0.593713
      pz      :     0.017020  p :     0.045496
      px      :     0.013477
      py      :     0.014999
  2 H s       :     0.588813  s :     0.588813
      pz      :     0.010673  p :     0.041546
      px      :     0.017784
      py      :     0.013089
  3 O s       :     3.811126  s :     3.811126
      pz      :     1.552889  p :     4.877191
      px      :     1.511616
      py      :     1.812685
      dz2     :     0.011731  d :     0.025655
      dxz     :     0.001230
      dyz     :     0.003022
      dx2y2   :     0.002143
      dxy     :     0.007530
      f0      :     0.000249  f :     0.001493
      f+1     :     0.000375
      f-1     :     0.000167
      f+2     :     0.000056
      f-2     :     0.000056
      f+3     :     0.000071
      f-3     :     0.000521
  4 H s       :     0.563741  s :     0.563741
      pz      :     0.024170  p :     0.048770
      px      :     0.011597
      py      :     0.013003
  5 H s       :     0.628465  s :     0.628465
      pz      :     0.011101  p :     0.045083
      px      :     0.018012
      py      :     0.015970
  6 O s       :     3.801835  s :     3.801835
      pz      :     1.558877  p :     4.932930
      px      :     1.845030
      py      :     1.529024
      dz2     :     0.011647  d :     0.024455
      dxz     :     0.002118
      dyz     :     0.002859
      dx2y2   :     0.003276
      dxy     :     0.004555
      f0      :     0.000171  f :     0.001364
      f+1     :     0.000112
      f-1     :     0.000464
      f+2     :     0.000068
      f-2     :     0.000041
      f+3     :     0.000411
      f-3     :     0.000096
  7 H s       :     0.588494  s :     0.588494
      pz      :     0.018917  p :     0.043698
      px      :     0.013257
      py      :     0.011524
  8 H s       :     0.551215  s :     0.551215
      pz      :     0.009194  p :     0.053166
      px      :     0.014604
      py      :     0.029368
  9 O s       :     3.803457  s :     3.803457
      pz      :     1.540742  p :     4.923650
      px      :     1.839505
      py      :     1.543403
      dz2     :     0.011900  d :     0.024652
      dxz     :     0.002171
      dyz     :     0.003021
      dx2y2   :     0.003242
      dxy     :     0.004319
      f0      :     0.000169  f :     0.001341
      f+1     :     0.000110
      f-1     :     0.000464
      f+2     :     0.000066
      f-2     :     0.000040
      f+3     :     0.000402
      f-3     :     0.000090
 10 H s       :     0.536661  s :     0.536661
      pz      :     0.008901  p :     0.053138
      px      :     0.014177
      py      :     0.030059
 11 H s       :     0.608771  s :     0.608771
      pz      :     0.018678  p :     0.044152
      px      :     0.013654
      py      :     0.011820
 12 O s       :     3.797683  s :     3.797683
      pz      :     1.598814  p :     4.955134
      px      :     1.518754
      py      :     1.837566
      dz2     :     0.011190  d :     0.023794
      dxz     :     0.002815
      dyz     :     0.002078
      dx2y2   :     0.003240
      dxy     :     0.004471
      f0      :     0.000150  f :     0.001303
      f+1     :     0.000449
      f-1     :     0.000105
      f+2     :     0.000066
      f-2     :     0.000039
      f+3     :     0.000092
      f-3     :     0.000401
 13 H s       :     0.559495  s :     0.559495
      pz      :     0.024574  p :     0.048170
      px      :     0.010965
      py      :     0.012632
 14 H s       :     0.563351  s :     0.563351
      pz      :     0.009526  p :     0.053667
      px      :     0.029309
      py      :     0.014832
 15 O s       :     3.802533  s :     3.802533
      pz      :     1.562379  p :     4.951885
      px      :     1.537554
      py      :     1.851952
      dz2     :     0.010725  d :     0.022979
      dxz     :     0.002618
      dyz     :     0.001993
      dx2y2   :     0.003110
      dxy     :     0.004532
      f0      :     0.000189  f :     0.001355
      f+1     :     0.000446
      f-1     :     0.000111
      f+2     :     0.000068
      f-2     :     0.000037
      f+3     :     0.000095
      f-3     :     0.000409
 16 H s       :     0.587686  s :     0.587686
      pz      :     0.018898  p :     0.043860
      px      :     0.011724
      py      :     0.013238
 17 H s       :     0.549291  s :     0.549291
      pz      :     0.008488  p :     0.052678
      px      :     0.029980
      py      :     0.014211


                     *******************************
                     * LOEWDIN POPULATION ANALYSIS *
                     *******************************

----------------------
LOEWDIN ATOMIC CHARGES
----------------------
   0 O :   -0.316003
   1 H :    0.162833
   2 H :    0.187766
   3 O :   -0.339590
   4 H :    0.156521
   5 H :    0.156564
   6 O :   -0.323840
   7 H :    0.171118
   8 H :    0.153472
   9 O :   -0.319136
  10 H :    0.158266
  11 H :    0.161205
  12 O :   -0.330465
  13 H :    0.155153
  14 H :    0.148543
  15 O :   -0.309686
  16 H :    0.170977
  17 H :    0.156301

-------------------------------
LOEWDIN REDUCED ORBITAL CHARGES
-------------------------------
  0 O s       :     3.468025  s :     3.468025
      pz      :     1.682176  p :     4.813842
      px      :     1.356045
      py      :     1.775622
      dz2     :     0.005327  d :     0.032033
      dxz     :     0.006810
      dyz     :     0.005747
      dx2y2   :     0.003843
      dxy     :     0.010307
      f0      :     0.000088  f :     0.002103
      f+1     :     0.000448
      f-1     :     0.000273
      f+2     :     0.000035
      f-2     :     0.000610
      f+3     :     0.000093
      f-3     :     0.000555
  1 H s       :     0.673776  s :     0.673776
      pz      :     0.066392  p :     0.163391
      px      :     0.044175
      py      :     0.052825
  2 H s       :     0.663982  s :     0.663982
      pz      :     0.033339  p :     0.148251
      px      :     0.071342
      py      :     0.043570
  3 O s       :     3.467621  s :     3.467621
      pz      :     1.535064  p :     4.837422
      px      :     1.516928
      py      :     1.785429
      dz2     :     0.015500  d :     0.032398
      dxz     :     0.001852
      dyz     :     0.002338
      dx2y2   :     0.002455
      dxy     :     0.010253
      f0      :     0.000439  f :     0.002149
      f+1     :     0.000568
      f-1     :     0.000318
      f+2     :     0.000024
      f-2     :     0.000045
      f+3     :     0.000003
      f-3     :     0.000752
  4 H s       :     0.673197  s :     0.673197
      pz      :     0.092618  p :     0.170283
      px      :     0.035723
      py      :     0.041941
  5 H s       :     0.686439  s :     0.686439
      pz      :     0.031418  p :     0.156997
      px      :     0.070819
      py      :     0.054759
  6 O s       :     3.461228  s :     3.461228
      pz      :     1.550911  p :     4.830586
      px      :     1.787548
      py      :     1.492126
      dz2     :     0.014454  d :     0.030041
      dxz     :     0.001306
      dyz     :     0.004030
      dx2y2   :     0.004701
      dxy     :     0.005551
      f0      :     0.000366  f :     0.001985
      f+1     :     0.000199
      f-1     :     0.000738
      f+2     :     0.000040
      f-2     :     0.000046
      f+3     :     0.000530
      f-3     :     0.000065
  7 H s       :     0.669032  s :     0.669032
      pz      :     0.079817  p :     0.159850
      px      :     0.043010
      py      :     0.037023
  8 H s       :     0.659682  s :     0.659682
      pz      :     0.029160  p :     0.186846
      px      :     0.052759
      py      :     0.104927
  9 O s       :     3.462481  s :     3.462481
      pz      :     1.541120  p :     4.824211
      px      :     1.783477
      py      :     1.499615
      dz2     :     0.015060  d :     0.030472
      dxz     :     0.001353
      dyz     :     0.004352
      dx2y2   :     0.004561
      dxy     :     0.005146
      f0      :     0.000379  f :     0.001972
      f+1     :     0.000197
      f-1     :     0.000743
      f+2     :     0.000040
      f-2     :     0.000048
      f+3     :     0.000503
      f-3     :     0.000062
 10 H s       :     0.652181  s :     0.652181
      pz      :     0.028590  p :     0.189554
      px      :     0.052563
      py      :     0.108401
 11 H s       :     0.679159  s :     0.679159
      pz      :     0.078820  p :     0.159635
      px      :     0.043358
      py      :     0.037458
 12 O s       :     3.455750  s :     3.455750
      pz      :     1.573962  p :     4.844036
      px      :     1.489019
      py      :     1.781055
      dz2     :     0.013522  d :     0.028787
      dxz     :     0.003753
      dyz     :     0.001228
      dx2y2   :     0.004743
      dxy     :     0.005541
      f0      :     0.000329  f :     0.001892
      f+1     :     0.000696
      f-1     :     0.000193
      f+2     :     0.000036
      f-2     :     0.000044
      f+3     :     0.000065
      f-3     :     0.000529
 13 H s       :     0.671395  s :     0.671395
      pz      :     0.093078  p :     0.173452
      px      :     0.037616
      py      :     0.042759
 14 H s       :     0.663805  s :     0.663805
      pz      :     0.030442  p :     0.187652
      px      :     0.104498
      py      :     0.052712
 15 O s       :     3.456149  s :     3.456149
      pz      :     1.533982  p :     4.821724
      px      :     1.496960
      py      :     1.790781
      dz2     :     0.014701  d :     0.029845
      dxz     :     0.004017
      dyz     :     0.001282
      dx2y2   :     0.004464
      dxy     :     0.005381
      f0      :     0.000381  f :     0.001968
      f+1     :     0.000730
      f-1     :     0.000193
      f+2     :     0.000039
      f-2     :     0.000047
      f+3     :     0.000063
      f-3     :     0.000516
 16 H s       :     0.669116  s :     0.669116
      pz      :     0.079657  p :     0.159907
      px      :     0.037221
      py      :     0.043029
 17 H s       :     0.653852  s :     0.653852
      pz      :     0.028872  p :     0.189848
      px      :     0.108259
      py      :     0.052717


                      *****************************
                      * MAYER POPULATION ANALYSIS *
                      *****************************

  NA   - Mulliken gross atomic population
  ZA   - Total nuclear charge
  QA   - Mulliken gross atomic charge
  VA   - Mayer's total valence
  BVA  - Mayer's bonded valence
  FA   - Mayer's free valence

  ATOM       NA         ZA         QA         VA         BVA        FA
  0 O      8.7211     8.0000    -0.7211     1.7665     1.7665     0.0000
  1 H      0.6392     1.0000     0.3608     0.8852     0.8852    -0.0000
  2 H      0.6304     1.0000     0.3696     0.8777     0.8777     0.0000
  3 O      8.7155     8.0000    -0.7155     1.7639     1.7639    -0.0000
  4 H      0.6125     1.0000     0.3875     0.8738     0.8738    -0.0000
  5 H      0.6735     1.0000     0.3265     0.9102     0.9102    -0.0000
  6 O      8.7606     8.0000    -0.7606     1.7195     1.7195     0.0000
  7 H      0.6322     1.0000     0.3678     0.8799     0.8799    -0.0000
  8 H      0.6044     1.0000     0.3956     0.8834     0.8834     0.0000
  9 O      8.7531     8.0000    -0.7531     1.7190     1.7190     0.0000
 10 H      0.5898     1.0000     0.4102     0.8746     0.8746    -0.0000
 11 H      0.6529     1.0000     0.3471     0.8941     0.8941     0.0000
 12 O      8.7779     8.0000    -0.7779     1.7008     1.7008     0.0000
 13 H      0.6077     1.0000     0.3923     0.8725     0.8725    -0.0000
 14 H      0.6170     1.0000     0.3830     0.8981     0.8981     0.0000
 15 O      8.7788     8.0000    -0.7788     1.6883     1.6883    -0.0000
 16 H      0.6315     1.0000     0.3685     0.8800     0.8800     0.0000
 17 H      0.6020     1.0000     0.3980     0.8911     0.8911    -0.0000

  Mayer bond orders larger than 0.100000
B(  0-O ,  1-H ) :   0.8776 B(  0-O ,  2-H ) :   0.8678 B(  3-O ,  4-H ) :   0.8518 
B(  3-O ,  5-H ) :   0.9023 B(  6-O ,  7-H ) :   0.8732 B(  6-O ,  8-H ) :   0.8124 
B(  9-O , 10-H ) :   0.7852 B(  9-O , 11-H ) :   0.8868 B( 12-O , 13-H ) :   0.8423 
B( 12-O , 14-H ) :   0.8170 B( 15-O , 16-H ) :   0.8722 B( 15-O , 17-H ) :   0.7841 


-------
TIMINGS
-------

Total SCF time: 0 days 0 hours 0 min 13 sec 

Total time                  ....      13.265 sec
Sum of individual times     ....      13.008 sec  ( 98.1%)

Fock matrix formation       ....      12.627 sec  ( 95.2%)
Diagonalization             ....       0.076 sec  (  0.6%)
Density matrix formation    ....       0.011 sec  (  0.1%)
Population analysis         ....       0.025 sec  (  0.2%)
Initial guess               ....       0.150 sec  (  1.1%)
Orbital Transformation      ....       0.000 sec  (  0.0%)
Orbital Orthonormalization  ....       0.000 sec  (  0.0%)
DIIS solution               ....       0.028 sec  (  0.2%)
SOSCF solution              ....       0.033 sec  (  0.3%)


           ************************************************************
           *        Program running with 6 parallel MPI-processes     *
           *              working on a common directory               *
           ************************************************************

------------------------------------------------------------------------------
                                ORCA  MP2 
------------------------------------------------------------------------------

Freezing NCore=12 chemical core electrons
MP2 will be done in the AO integral direct mode
The Q1-step will be done using symmetric double matrices
Dimension of the basis                    ...  258
Memory devoted for MP2                    ... 8000 MB   
Memory needed for all in one shot         ...  264 MB
Number of MOs that can be treated together...  120      
MP2 density construction                  ... relaxed
The MP2 gradient is requested => amplitudes will be stored on disk
Total number of MOs              ...   24
Number of MOs treated per batch  ...    4 
Number of batches necessary      ...    1 
OPERATORS   0/  0 PASS   0
-----------------------------------------------
 MP2 CORRELATION ENERGY   :     -1.553895288 Eh
-----------------------------------------------


---------------------
MP2 DENSITY FORMATION
---------------------

Completing the external part of the density      ... done
Storing the unrelaxed density                    ... done

Calculating G(D)                                 ... done
Completing the Lagrangian                        ... done
Solving the Z-vector equations                   ... 

------------------------------------------------------------------------------
                           ORCA CP-SCF CALCULATION
------------------------------------------------------------------------------

Input orbitals are from        ... 12h2o.su.etal.mol0,3,4,5,6,7-orca.engrad-mp2.def2tzvp.frozencore.gbw
Input Perturbation             ... 12h2o.su.etal.mol0,3,4,5,6,7-orca.engrad-mp2.def2tzvp.frozencore.pin.tmp
Wavefunction output            ... 12h2o.su.etal.mol0,3,4,5,6,7-orca.engrad-mp2.def2tzvp.frozencore.pout.tmp
Perturbation mode              ... Real perturbation (singlet)
Solver                         ... POPLE
Max. number of iterations      ... 128
Convergence tolerance          ... 1.000e-08
Integral handling              ... Direct
Number of perturbations        ... 1
Number of operators            ... 1
Orbital ranges used for CP-SCF:
 Operator 0:  Orbitals   0... 29  to  30...257
Variables per vector in CP-SCF ... 6840
Number of vectors sought       ... 1
     CP-SCF ITERATION   0: 
     CP-SCF ITERATION   1:      0.000852948575
     CP-SCF ITERATION   2:      0.000023983062
     CP-SCF ITERATION   3:      0.000001510677
     CP-SCF ITERATION   4:      0.000000143883
     CP-SCF ITERATION   5:      0.000000014227
     CP-SCF ITERATION   6:      0.000000000800
                                                 ... done
Finalizing the relaxed density                   ... done
Transforming P to the AO basis                   ... done
Storing the relaxed density                      ... done

------------------------------------
ENERGY WEIGHTED DENSITY FINALIZATION
------------------------------------

Gathering the parts of the W-matrix              ...                                                      done
Forming the Z-density                            ... done
Transforming Z to the AO basis                   ... done
Calculating G(Z)                                 ... done
Finalizing the W-matrix                          ...                                                      done
Transforming W to the AO basis and storing       ... done

                *********************************************
                * UNRELAXED MP2 DENSITY POPULATION ANALYSIS *
                *********************************************

------------------------------------------------------------------------------
                           ORCA POPULATION ANALYSIS
------------------------------------------------------------------------------
Input electron density              ... 12h2o.su.etal.mol0,3,4,5,6,7-orca.engrad-mp2.def2tzvp.frozencore.pmp2ur
BaseName (.gbw .S,...)              ... 12h2o.su.etal.mol0,3,4,5,6,7-orca.engrad-mp2.def2tzvp.frozencore

                    ********************************
                    * MULLIKEN POPULATION ANALYSIS *
                    ********************************

-----------------------
MULLIKEN ATOMIC CHARGES
-----------------------
   0 O :   -0.715797
   1 H :    0.358606
   2 H :    0.366898
   3 O :   -0.710103
   4 H :    0.384613
   5 H :    0.323959
   6 O :   -0.753593
   7 H :    0.365326
   8 H :    0.391102
   9 O :   -0.745804
  10 H :    0.405576
  11 H :    0.344561
  12 O :   -0.770357
  13 H :    0.389319
  14 H :    0.378335
  15 O :   -0.771693
  16 H :    0.366062
  17 H :    0.392991
Sum of atomic charges:    0.0000000

--------------------------------
MULLIKEN REDUCED ORBITAL CHARGES
--------------------------------
  0 O s       :     3.805097  s :     3.805097
      pz      :     1.707960  p :     4.855151
      px      :     1.354316
      py      :     1.792876
      dz2     :     0.009536  d :     0.051476
      dxz     :     0.009724
      dyz     :     0.011151
      dx2y2   :     0.007849
      dxy     :     0.013216
      f0      :     0.000454  f :     0.004072
      f+1     :     0.000690
      f-1     :     0.000553
      f+2     :     0.000438
      f-2     :     0.000715
      f+3     :     0.000468
      f-3     :     0.000754
  1 H s       :     0.594327  s :     0.594327
      pz      :     0.017494  p :     0.047067
      px      :     0.013863
      py      :     0.015710
  2 H s       :     0.590019  s :     0.590019
      pz      :     0.011505  p :     0.043083
      px      :     0.017723
      py      :     0.013854
  3 O s       :     3.806331  s :     3.806331
      pz      :     1.543444  p :     4.847461
      px      :     1.502632
      py      :     1.801385
      dz2     :     0.016840  d :     0.052258
      dxz     :     0.006612
      dyz     :     0.008483
      dx2y2   :     0.007607
      dxy     :     0.012716
      f0      :     0.000629  f :     0.004052
      f+1     :     0.000741
      f-1     :     0.000540
      f+2     :     0.000414
      f-2     :     0.000420
      f+3     :     0.000437
      f-3     :     0.000872
  4 H s       :     0.565069  s :     0.565069
      pz      :     0.024227  p :     0.050318
      px      :     0.012251
      py      :     0.013840
  5 H s       :     0.629225  s :     0.629225
      pz      :     0.011933  p :     0.046816
      px      :     0.018210
      py      :     0.016674
  6 O s       :     3.796558  s :     3.796558
      pz      :     1.549432  p :     4.901126
      px      :     1.832062
      py      :     1.519632
      dz2     :     0.016832  d :     0.051951
      dxz     :     0.007753
      dyz     :     0.008274
      dx2y2   :     0.008956
      dxy     :     0.010135
      f0      :     0.000554  f :     0.003958
      f+1     :     0.000486
      f-1     :     0.000831
      f+2     :     0.000434
      f-2     :     0.000409
      f+3     :     0.000774
      f-3     :     0.000470
  7 H s       :     0.589375  s :     0.589375
      pz      :     0.019046  p :     0.045299
      px      :     0.014098
      py      :     0.012155
  8 H s       :     0.554101  s :     0.554101
      pz      :     0.009993  p :     0.054797
      px      :     0.015281
      py      :     0.029524
  9 O s       :     3.798095  s :     3.798095
      pz      :     1.531434  p :     4.891667
      px      :     1.826350
      py      :     1.533883
      dz2     :     0.017050  d :     0.052106
      dxz     :     0.007793
      dyz     :     0.008422
      dx2y2   :     0.008926
      dxy     :     0.009915
      f0      :     0.000551  f :     0.003936
      f+1     :     0.000483
      f-1     :     0.000831
      f+2     :     0.000432
      f-2     :     0.000408
      f+3     :     0.000766
      f-3     :     0.000465
 10 H s       :     0.539718  s :     0.539718
      pz      :     0.009678  p :     0.054706
      px      :     0.014818
      py      :     0.030210
 11 H s       :     0.609601  s :     0.609601
      pz      :     0.018846  p :     0.045838
      px      :     0.014518
      py      :     0.012475
 12 O s       :     3.792387  s :     3.792387
      pz      :     1.588884  p :     4.922490
      px      :     1.509194
      py      :     1.824412
      dz2     :     0.016514  d :     0.051569
      dxz     :     0.008288
      dyz     :     0.007768
      dx2y2   :     0.008934
      dxy     :     0.010065
      f0      :     0.000539  f :     0.003911
      f+1     :     0.000821
      f-1     :     0.000482
      f+2     :     0.000434
      f-2     :     0.000408
      f+3     :     0.000465
      f-3     :     0.000763
 13 H s       :     0.560971  s :     0.560971
      pz      :     0.024683  p :     0.049710
      px      :     0.011572
      py      :     0.013455
 14 H s       :     0.566338  s :     0.566338
      pz      :     0.010351  p :     0.055328
      px      :     0.029464
      py      :     0.015512
 15 O s       :     3.797216  s :     3.797216
      pz      :     1.552879  p :     4.919612
      px      :     1.527851
      py      :     1.838882
      dz2     :     0.016119  d :     0.050906
      dxz     :     0.008108
      dyz     :     0.007711
      dx2y2   :     0.008825
      dxy     :     0.010143
      f0      :     0.000574  f :     0.003960
      f+1     :     0.000816
      f-1     :     0.000487
      f+2     :     0.000435
      f-2     :     0.000406
      f+3     :     0.000469
      f-3     :     0.000773
 16 H s       :     0.588486  s :     0.588486
      pz      :     0.019047  p :     0.045452
      px      :     0.012332
      py      :     0.014072
 17 H s       :     0.552766  s :     0.552766
      pz      :     0.009248  p :     0.054242
      px      :     0.030125
      py      :     0.014869


                     *******************************
                     * LOEWDIN POPULATION ANALYSIS *
                     *******************************

----------------------
LOEWDIN ATOMIC CHARGES
----------------------
   0 O :   -0.312388
   1 H :    0.161693
   2 H :    0.186027
   3 O :   -0.336554
   4 H :    0.154652
   5 H :    0.154991
   6 O :   -0.319773
   7 H :    0.169669
   8 H :    0.150815
   9 O :   -0.314867
  10 H :    0.155632
  11 H :    0.159634
  12 O :   -0.326233
  13 H :    0.153140
  14 H :    0.145856
  15 O :   -0.305303
  16 H :    0.169508
  17 H :    0.153501

-------------------------------
LOEWDIN REDUCED ORBITAL CHARGES
-------------------------------
  0 O s       :     3.464254  s :     3.464254
      pz      :     1.670821  p :     4.783337
      px      :     1.347962
      py      :     1.764554
      dz2     :     0.010945  d :     0.059948
      dxz     :     0.012382
      dyz     :     0.011429
      dx2y2   :     0.009314
      dxy     :     0.015877
      f0      :     0.000471  f :     0.004849
      f+1     :     0.000856
      f-1     :     0.000657
      f+2     :     0.000409
      f-2     :     0.001017
      f+3     :     0.000474
      f-3     :     0.000965
  1 H s       :     0.671905  s :     0.671905
      pz      :     0.067596  p :     0.166402
      px      :     0.044994
      py      :     0.053812
  2 H s       :     0.662651  s :     0.662651
      pz      :     0.034180  p :     0.151322
      px      :     0.072588
      py      :     0.044554
  3 O s       :     3.463886  s :     3.463886
      pz      :     1.525532  p :     4.807632
      px      :     1.507680
      py      :     1.774420
      dz2     :     0.021292  d :     0.060133
      dxz     :     0.007190
      dyz     :     0.007746
      dx2y2   :     0.007915
      dxy     :     0.015990
      f0      :     0.000860  f :     0.004903
      f+1     :     0.000988
      f-1     :     0.000714
      f+2     :     0.000388
      f-2     :     0.000417
      f+3     :     0.000375
      f-3     :     0.001162
  4 H s       :     0.672181  s :     0.672181
      pz      :     0.093953  p :     0.173167
      px      :     0.036459
      py      :     0.042755
  5 H s       :     0.684599  s :     0.684599
      pz      :     0.032208  p :     0.160410
      px      :     0.072329
      py      :     0.055872
  6 O s       :     3.457459  s :     3.457459
      pz      :     1.541223  p :     4.798941
      px      :     1.774729
      py      :     1.482989
      dz2     :     0.020287  d :     0.058597
      dxz     :     0.006861
      dyz     :     0.009463
      dx2y2   :     0.010541
      dxy     :     0.011446
      f0      :     0.000780  f :     0.004776
      f+1     :     0.000588
      f-1     :     0.001175
      f+2     :     0.000413
      f-2     :     0.000420
      f+3     :     0.000949
      f-3     :     0.000450
  7 H s       :     0.667390  s :     0.667390
      pz      :     0.081336  p :     0.162941
      px      :     0.043782
      py      :     0.037824
  8 H s       :     0.659651  s :     0.659651
      pz      :     0.029965  p :     0.189534
      px      :     0.053596
      py      :     0.105973
  9 O s       :     3.458687  s :     3.458687
      pz      :     1.531442  p :     4.792417
      px      :     1.770495
      py      :     1.490481
      dz2     :     0.020872  d :     0.058999
      dxz     :     0.006902
      dyz     :     0.009776
      dx2y2   :     0.010402
      dxy     :     0.011046
      f0      :     0.000793  f :     0.004763
      f+1     :     0.000586
      f-1     :     0.001181
      f+2     :     0.000413
      f-2     :     0.000422
      f+3     :     0.000921
      f-3     :     0.000447
 10 H s       :     0.652314  s :     0.652314
      pz      :     0.029367  p :     0.192054
      px      :     0.053333
      py      :     0.109354
 11 H s       :     0.677421  s :     0.677421
      pz      :     0.080506  p :     0.162945
      px      :     0.044143
      py      :     0.038296
 12 O s       :     3.452049  s :     3.452049
      pz      :     1.564035  p :     4.811843
      px      :     1.479750
      py      :     1.768058
      dz2     :     0.019458  d :     0.057642
      dxz     :     0.009267
      dyz     :     0.006841
      dx2y2   :     0.010611
      dxy     :     0.011465
      f0      :     0.000749  f :     0.004700
      f+1     :     0.001138
      f-1     :     0.000585
      f+2     :     0.000411
      f-2     :     0.000420
      f+3     :     0.000449
      f-3     :     0.000948
 13 H s       :     0.670542  s :     0.670542
      pz      :     0.094395  p :     0.176317
      px      :     0.038407
      py      :     0.043515
 14 H s       :     0.663741  s :     0.663741
      pz      :     0.031270  p :     0.190403
      px      :     0.105586
      py      :     0.053548
 15 O s       :     3.452414  s :     3.452414
      pz      :     1.523749  p :     4.789268
      px      :     1.487634
      py      :     1.777885
      dz2     :     0.020722  d :     0.058848
      dxz     :     0.009545
      dyz     :     0.006930
      dx2y2   :     0.010341
      dxy     :     0.011310
      f0      :     0.000799  f :     0.004773
      f+1     :     0.001170
      f-1     :     0.000585
      f+2     :     0.000413
      f-2     :     0.000422
      f+3     :     0.000448
      f-3     :     0.000935
 16 H s       :     0.667472  s :     0.667472
      pz      :     0.081191  p :     0.163019
      px      :     0.038026
      py      :     0.043802
 17 H s       :     0.654077  s :     0.654077
      pz      :     0.029666  p :     0.192422
      px      :     0.109230
      py      :     0.053525


                      *****************************
                      * MAYER POPULATION ANALYSIS *
                      *****************************

  NA   - Mulliken gross atomic population
  ZA   - Total nuclear charge
  QA   - Mulliken gross atomic charge
  VA   - Mayer's total valence
  BVA  - Mayer's bonded valence
  FA   - Mayer's free valence

  ATOM       NA         ZA         QA         VA         BVA        FA
  0 O      8.7158     8.0000    -0.7158     2.0750     1.6855     0.3895
  1 H      0.6414     1.0000     0.3586     0.8908     0.8454     0.0454
  2 H      0.6331     1.0000     0.3669     0.8837     0.8360     0.0476
  3 O      8.7101     8.0000    -0.7101     2.0703     1.6826     0.3877
  4 H      0.6154     1.0000     0.3846     0.8798     0.8356     0.0442
  5 H      0.6760     1.0000     0.3240     0.9166     0.8671     0.0496
  6 O      8.7536     8.0000    -0.7536     2.0332     1.6410     0.3922
  7 H      0.6347     1.0000     0.3653     0.8857     0.8395     0.0462
  8 H      0.6089     1.0000     0.3911     0.8912     0.8451     0.0461
  9 O      8.7458     8.0000    -0.7458     2.0328     1.6399     0.3929
 10 H      0.5944     1.0000     0.4056     0.8822     0.8373     0.0449
 11 H      0.6554     1.0000     0.3446     0.9002     0.8520     0.0483
 12 O      8.7704     8.0000    -0.7704     2.0177     1.6233     0.3944
 13 H      0.6107     1.0000     0.3893     0.8784     0.8343     0.0441
 14 H      0.6217     1.0000     0.3783     0.9060     0.8588     0.0472
 15 O      8.7717     8.0000    -0.7717     2.0056     1.6110     0.3946
 16 H      0.6339     1.0000     0.3661     0.8855     0.8394     0.0462
 17 H      0.6070     1.0000     0.3930     0.8994     0.8527     0.0466

  Mayer bond orders larger than 0.100000
B(  0-O ,  1-H ) :   0.8383 B(  0-O ,  2-H ) :   0.8268 B(  3-O ,  4-H ) :   0.8141 
B(  3-O ,  5-H ) :   0.8597 B(  6-O ,  7-H ) :   0.8333 B(  6-O ,  8-H ) :   0.7762 
B(  9-O , 10-H ) :   0.7508 B(  9-O , 11-H ) :   0.8452 B( 12-O , 13-H ) :   0.8051 
B( 12-O , 14-H ) :   0.7802 B( 15-O , 16-H ) :   0.8323 B( 15-O , 17-H ) :   0.7491 



                *******************************************
                * RELAXED MP2 DENSITY POPULATION ANALYSIS *
                *******************************************

------------------------------------------------------------------------------
                           ORCA POPULATION ANALYSIS
------------------------------------------------------------------------------
Input electron density              ... 12h2o.su.etal.mol0,3,4,5,6,7-orca.engrad-mp2.def2tzvp.frozencore.pmp2re
BaseName (.gbw .S,...)              ... 12h2o.su.etal.mol0,3,4,5,6,7-orca.engrad-mp2.def2tzvp.frozencore

                    ********************************
                    * MULLIKEN POPULATION ANALYSIS *
                    ********************************

-----------------------
MULLIKEN ATOMIC CHARGES
-----------------------
   0 O :   -0.698040
   1 H :    0.351876
   2 H :    0.359857
   3 O :   -0.692272
   4 H :    0.371650
   5 H :    0.317803
   6 O :   -0.724520
   7 H :    0.359010
   8 H :    0.368577
   9 O :   -0.714437
  10 H :    0.380484
  11 H :    0.339186
  12 O :   -0.734381
  13 H :    0.375366
  14 H :    0.354601
  15 O :   -0.739851
  16 H :    0.358723
  17 H :    0.366368
Sum of atomic charges:    0.0000000

--------------------------------
MULLIKEN REDUCED ORBITAL CHARGES
--------------------------------
  0 O s       :     3.809306  s :     3.809306
      pz      :     1.697918  p :     4.835505
      px      :     1.350338
      py      :     1.787248
      dz2     :     0.009290  d :     0.049230
      dxz     :     0.009133
      dyz     :     0.010874
      dx2y2   :     0.007602
      dxy     :     0.012332
      f0      :     0.000452  f :     0.004000
      f+1     :     0.000670
      f-1     :     0.000545
      f+2     :     0.000438
      f-2     :     0.000694
      f+3     :     0.000466
      f-3     :     0.000734
  1 H s       :     0.600361  s :     0.600361
      pz      :     0.017635  p :     0.047762
      px      :     0.013791
      py      :     0.016336
  2 H s       :     0.596471  s :     0.596471
      pz      :     0.012357  p :     0.043672
      px      :     0.016743
      py      :     0.014573
  3 O s       :     3.808182  s :     3.808182
      pz      :     1.539592  p :     4.830048
      px      :     1.494892
      py      :     1.795564
      dz2     :     0.015596  d :     0.050062
      dxz     :     0.006573
      dyz     :     0.008460
      dx2y2   :     0.007513
      dxy     :     0.011920
      f0      :     0.000612  f :     0.003979
      f+1     :     0.000719
      f-1     :     0.000530
      f+2     :     0.000415
      f-2     :     0.000419
      f+3     :     0.000437
      f-3     :     0.000847
  4 H s       :     0.577543  s :     0.577543
      pz      :     0.023339  p :     0.050806
      px      :     0.012743
      py      :     0.014724
  5 H s       :     0.634523  s :     0.634523
      pz      :     0.012712  p :     0.047674
      px      :     0.017684
      py      :     0.017277
  6 O s       :     3.795776  s :     3.795776
      pz      :     1.543932  p :     4.874739
      px      :     1.812841
      py      :     1.517966
      dz2     :     0.015696  d :     0.050117
      dxz     :     0.007801
      dyz     :     0.008045
      dx2y2   :     0.008779
      dxy     :     0.009796
      f0      :     0.000540  f :     0.003889
      f+1     :     0.000481
      f-1     :     0.000804
      f+2     :     0.000434
      f-2     :     0.000407
      f+3     :     0.000755
      f-3     :     0.000468
  7 H s       :     0.595040  s :     0.595040
      pz      :     0.018367  p :     0.045950
      px      :     0.015036
      py      :     0.012546
  8 H s       :     0.576338  s :     0.576338
      pz      :     0.010628  p :     0.055085
      px      :     0.015763
      py      :     0.028694
  9 O s       :     3.796885  s :     3.796885
      pz      :     1.526619  p :     4.863430
      px      :     1.805446
      py      :     1.531364
      dz2     :     0.015874  d :     0.050255
      dxz     :     0.007852
      dyz     :     0.008182
      dx2y2   :     0.008739
      dxy     :     0.009608
      f0      :     0.000538  f :     0.003867
      f+1     :     0.000478
      f-1     :     0.000805
      f+2     :     0.000431
      f-2     :     0.000406
      f+3     :     0.000747
      f-3     :     0.000462
 10 H s       :     0.564665  s :     0.564665
      pz      :     0.010274  p :     0.054852
      px      :     0.015206
      py      :     0.029372
 11 H s       :     0.614229  s :     0.614229
      pz      :     0.018205  p :     0.046585
      px      :     0.015481
      py      :     0.012899
 12 O s       :     3.788018  s :     3.788018
      pz      :     1.585506  p :     4.892637
      px      :     1.503829
      py      :     1.803303
      dz2     :     0.015539  d :     0.049882
      dxz     :     0.008081
      dyz     :     0.007816
      dx2y2   :     0.008727
      dxy     :     0.009719
      f0      :     0.000527  f :     0.003843
      f+1     :     0.000795
      f-1     :     0.000477
      f+2     :     0.000433
      f-2     :     0.000406
      f+3     :     0.000462
      f-3     :     0.000744
 13 H s       :     0.574391  s :     0.574391
      pz      :     0.024048  p :     0.050243
      px      :     0.011882
      py      :     0.014313
 14 H s       :     0.589670  s :     0.589670
      pz      :     0.011027  p :     0.055729
      px      :     0.028654
      py      :     0.016048
 15 O s       :     3.798156  s :     3.798156
      pz      :     1.544616  p :     4.888719
      px      :     1.523680
      py      :     1.820423
      dz2     :     0.015021  d :     0.049085
      dxz     :     0.007844
      dyz     :     0.007753
      dx2y2   :     0.008659
      dxy     :     0.009807
      f0      :     0.000562  f :     0.003891
      f+1     :     0.000788
      f-1     :     0.000481
      f+2     :     0.000434
      f-2     :     0.000405
      f+3     :     0.000466
      f-3     :     0.000754
 16 H s       :     0.595174  s :     0.595174
      pz      :     0.018331  p :     0.046103
      px      :     0.012765
      py      :     0.015008
 17 H s       :     0.579092  s :     0.579092
      pz      :     0.009865  p :     0.054540
      px      :     0.029352
      py      :     0.015323


                     *******************************
                     * LOEWDIN POPULATION ANALYSIS *
                     *******************************

----------------------
LOEWDIN ATOMIC CHARGES
----------------------
   0 O :   -0.311149
   1 H :    0.163378
   2 H :    0.187268
   3 O :   -0.337445
   4 H :    0.151364
   5 H :    0.156890
   6 O :   -0.314061
   7 H :    0.171157
   8 H :    0.143483
   9 O :   -0.308277
  10 H :    0.147592
  11 H :    0.161472
  12 O :   -0.318160
  13 H :    0.149348
  14 H :    0.138772
  15 O :   -0.297705
  16 H :    0.170909
  17 H :    0.145165

-------------------------------
LOEWDIN REDUCED ORBITAL CHARGES
-------------------------------
  0 O s       :     3.466151  s :     3.466151
      pz      :     1.665605  p :     4.781400
      px      :     1.352873
      py      :     1.762922
      dz2     :     0.010855  d :     0.058730
      dxz     :     0.012009
      dyz     :     0.011399
      dx2y2   :     0.009082
      dxy     :     0.015385
      f0      :     0.000474  f :     0.004868
      f+1     :     0.000863
      f-1     :     0.000657
      f+2     :     0.000410
      f-2     :     0.001017
      f+3     :     0.000477
      f-3     :     0.000971
  1 H s       :     0.670349  s :     0.670349
      pz      :     0.067639  p :     0.166272
      px      :     0.044189
      py      :     0.054445
  2 H s       :     0.661411  s :     0.661411
      pz      :     0.034886  p :     0.151321
      px      :     0.071146
      py      :     0.045289
  3 O s       :     3.465349  s :     3.465349
      pz      :     1.526496  p :     4.808269
      px      :     1.509327
      py      :     1.772447
      dz2     :     0.020659  d :     0.058906
      dxz     :     0.007069
      dyz     :     0.007784
      dx2y2   :     0.007830
      dxy     :     0.015565
      f0      :     0.000864  f :     0.004921
      f+1     :     0.000995
      f-1     :     0.000713
      f+2     :     0.000390
      f-2     :     0.000416
      f+3     :     0.000375
      f-3     :     0.001168
  4 H s       :     0.675219  s :     0.675219
      pz      :     0.093021  p :     0.173417
      px      :     0.036764
      py      :     0.043632
  5 H s       :     0.682236  s :     0.682236
      pz      :     0.032674  p :     0.160873
      px      :     0.071748
      py      :     0.056451
  6 O s       :     3.458583  s :     3.458583
      pz      :     1.543003  p :     4.792762
      px      :     1.763438
      py      :     1.486321
      dz2     :     0.019747  d :     0.057912
      dxz     :     0.006923
      dyz     :     0.009250
      dx2y2   :     0.010577
      dxy     :     0.011414
      f0      :     0.000776  f :     0.004805
      f+1     :     0.000590
      f-1     :     0.001187
      f+2     :     0.000415
      f-2     :     0.000419
      f+3     :     0.000963
      f-3     :     0.000453
  7 H s       :     0.665949  s :     0.665949
      pz      :     0.080523  p :     0.162894
      px      :     0.044429
      py      :     0.037942
  8 H s       :     0.666288  s :     0.666288
      pz      :     0.030369  p :     0.190229
      px      :     0.054150
      py      :     0.105710
  9 O s       :     3.460059  s :     3.460059
      pz      :     1.533334  p :     4.785072
      px      :     1.758008
      py      :     1.493731
      dz2     :     0.020306  d :     0.058353
      dxz     :     0.006974
      dyz     :     0.009549
      dx2y2   :     0.010463
      dxy     :     0.011060
      f0      :     0.000789  f :     0.004792
      f+1     :     0.000587
      f-1     :     0.001193
      f+2     :     0.000415
      f-2     :     0.000421
      f+3     :     0.000937
      f-3     :     0.000451
 10 H s       :     0.659803  s :     0.659803
      pz      :     0.029737  p :     0.192605
      px      :     0.053710
      py      :     0.109158
 11 H s       :     0.675325  s :     0.675325
      pz      :     0.079946  p :     0.163203
      px      :     0.044775
      py      :     0.038482
 12 O s       :     3.452640  s :     3.452640
      pz      :     1.565395  p :     4.803615
      px      :     1.482500
      py      :     1.755720
      dz2     :     0.019109  d :     0.057173
      dxz     :     0.009102
      dyz     :     0.006909
      dx2y2   :     0.010629
      dxy     :     0.011425
      f0      :     0.000749  f :     0.004732
      f+1     :     0.001150
      f-1     :     0.000587
      f+2     :     0.000412
      f-2     :     0.000419
      f+3     :     0.000453
      f-3     :     0.000961
 13 H s       :     0.674013  s :     0.674013
      pz      :     0.093886  p :     0.176640
      px      :     0.038668
      py      :     0.044086
 14 H s       :     0.669967  s :     0.669967
      pz      :     0.031800  p :     0.191262
      px      :     0.105468
      py      :     0.053994
 15 O s       :     3.453849  s :     3.453849
      pz      :     1.523090  p :     4.780623
      px      :     1.490519
      py      :     1.767014
      dz2     :     0.020351  d :     0.058425
      dxz     :     0.009350
      dyz     :     0.007005
      dx2y2   :     0.010410
      dxy     :     0.011308
      f0      :     0.000800  f :     0.004808
      f+1     :     0.001183
      f-1     :     0.000588
      f+2     :     0.000415
      f-2     :     0.000421
      f+3     :     0.000451
      f-3     :     0.000950
 16 H s       :     0.666067  s :     0.666067
      pz      :     0.080400  p :     0.163024
      px      :     0.038141
      py      :     0.044484
 17 H s       :     0.661656  s :     0.661656
      pz      :     0.029973  p :     0.193179
      px      :     0.109175
      py      :     0.054032


                      *****************************
                      * MAYER POPULATION ANALYSIS *
                      *****************************

  NA   - Mulliken gross atomic population
  ZA   - Total nuclear charge
  QA   - Mulliken gross atomic charge
  VA   - Mayer's total valence
  BVA  - Mayer's bonded valence
  FA   - Mayer's free valence

  ATOM       NA         ZA         QA         VA         BVA        FA
  0 O      8.6980     8.0000    -0.6980     2.0965     1.7126     0.3839
  1 H      0.6481     1.0000     0.3519     0.8958     0.8504     0.0454
  2 H      0.6401     1.0000     0.3599     0.8903     0.8427     0.0476
  3 O      8.6923     8.0000    -0.6923     2.0846     1.7021     0.3825
  4 H      0.6283     1.0000     0.3717     0.8975     0.8535     0.0440
  5 H      0.6822     1.0000     0.3178     0.9219     0.8723     0.0495
  6 O      8.7245     8.0000    -0.7245     2.0663     1.6800     0.3863
  7 H      0.6410     1.0000     0.3590     0.8905     0.8442     0.0463
  8 H      0.6314     1.0000     0.3686     0.9229     0.8780     0.0449
  9 O      8.7144     8.0000    -0.7144     2.0663     1.6795     0.3867
 10 H      0.6195     1.0000     0.3805     0.9158     0.8721     0.0437
 11 H      0.6608     1.0000     0.3392     0.9039     0.8556     0.0483
 12 O      8.7344     8.0000    -0.7344     2.0587     1.6705     0.3882
 13 H      0.6246     1.0000     0.3754     0.8965     0.8526     0.0439
 14 H      0.6454     1.0000     0.3546     0.9387     0.8926     0.0461
 15 O      8.7399     8.0000    -0.7399     2.0468     1.6585     0.3882
 16 H      0.6413     1.0000     0.3587     0.8904     0.8442     0.0462
 17 H      0.6336     1.0000     0.3664     0.9349     0.8898     0.0451

  Mayer bond orders larger than 0.100000
B(  0-O ,  1-H ) :   0.8421 B(  0-O ,  2-H ) :   0.8305 B(  3-O ,  4-H ) :   0.8197 
B(  3-O ,  5-H ) :   0.8628 B(  6-O ,  7-H ) :   0.8365 B(  6-O ,  8-H ) :   0.7755 
B(  6-O , 14-H ) :   0.1023 B(  9-O , 10-H ) :   0.7493 B(  9-O , 11-H ) :   0.8474 
B(  9-O , 17-H ) :   0.1242 B( 10-H , 12-O ) :   0.1199 B( 12-O , 13-H ) :   0.8091 
B( 12-O , 14-H ) :   0.7791 B( 15-O , 16-H ) :   0.8352 B( 15-O , 17-H ) :   0.7453 



----------------------------------
MP2 DERIVATIVE INTEGRAL GENERATION
----------------------------------


Input Wavefunction Amplitudes       ... 12h2o.su.etal.mol0,3,4,5,6,7-orca.engrad-mp2.def2tzvp.frozencore.mp2tsaa.tmp
Input Correlated Electron Density   ... 12h2o.su.etal.mol0,3,4,5,6,7-orca.engrad-mp2.def2tzvp.frozencore.pmp2re
Input Energy Weighted Density       ... 12h2o.su.etal.mol0,3,4,5,6,7-orca.engrad-mp2.def2tzvp.frozencore.wmp2.tmp
Input SCF Electron Density          ... 12h2o.su.etal.mol0,3,4,5,6,7-orca.engrad-mp2.def2tzvp.frozencore.scfp

One-Electron Terms    ...
                        ... One-Electron Terms done
Prescreening matrices              ... done

Batch handling in the gradient evaluation:
Memory available                      ... 8000.0 MB
Memory per occupied orbital in Q2     ...   12.2 MB
Memory per occupied orbital in Q3     ...    0.1 MB
Total memory requirement per |i>      ...   12.3 MB
Max. Number of orbitals possible      ...    651
Number of orbitals treated per batch  ...     24
Number of batches to be done          ...      1
Batch   0: i=    6 ...    29

---------------------------------------
MP2 TOTAL ENERGY:     -457.937721732 Eh
---------------------------------------

The final MP2 gradient
  0:   0.02544727  -0.00923605   0.00003507
  1:   0.00148613  -0.00179359  -0.00229225
  2:  -0.02731828   0.00933620   0.00070313
  3:  -0.00930312   0.00622857  -0.00205185
  4:  -0.00070395  -0.00115165   0.00343981
  5:   0.01069755  -0.00617732  -0.00002098
  6:   0.00111084   0.00018297   0.00860118
  7:   0.00055394   0.00154390  -0.00763673
  8:   0.00021846  -0.00351428   0.00172894
  9:   0.00675396   0.00363389   0.01297860
 10:  -0.00424352  -0.00467404  -0.00075269
 11:  -0.00229627  -0.00085258  -0.00923694
 12:   0.00217824   0.00253449  -0.00187466
 13:   0.00177063   0.00128115   0.00202901
 14:  -0.00452878  -0.00071294   0.00017620
 15:   0.00322526  -0.00036351  -0.01254007
 16:   0.00039531   0.00151275   0.00884210
 17:  -0.00544369   0.00222204  -0.00212785

-----------------------------------
NORM OF THE MP2 GRADIENT:  0.052116
-----------------------------------

-------------------------   --------------------
FINAL SINGLE POINT ENERGY      -457.937721732336
-------------------------   --------------------


                            ***************************************
                            *     ORCA property calculations      *
                            ***************************************

                                    ---------------------
                                    Active property flags
                                    ---------------------
   (+) Dipole Moment


------------------------------------------------------------------------------
                       ORCA ELECTRIC PROPERTIES CALCULATION
------------------------------------------------------------------------------

Dipole Moment Calculation                       ... on
Quadrupole Moment Calculation                   ... off
Polarizability Calculation                      ... off
GBWName                                         ... 12h2o.su.etal.mol0,3,4,5,6,7-orca.engrad-mp2.def2tzvp.frozencore.gbw
Electron density file                           ... 12h2o.su.etal.mol0,3,4,5,6,7-orca.engrad-mp2.def2tzvp.frozencore.scfp
The origin for moment calculation is the CENTER OF MASS  = ( 0.016426,  0.059687 -0.012373)

-------------
DIPOLE MOMENT
-------------
                                X             Y             Z
Electronic contribution:      0.04004       0.04424       0.16556
Nuclear contribution   :      0.14599       0.11349       1.31870
                        -----------------------------------------
Total Dipole Moment    :      0.18603       0.15773       1.48426
                        -----------------------------------------
Magnitude (a.u.)       :      1.50416
Magnitude (Debye)      :      3.82328



--------------------
Rotational spectrum 
--------------------
 
Rotational constants in cm-1:     0.075276     0.029610     0.027065 
Rotational constants in MHz :  2256.717880   887.682263   811.377094 

 Dipole components along the rotational axes: 
x,y,z [a.u.] :     1.235049     0.068950     0.855808 
x,y,z [Debye]:     3.139244     0.175257     2.175292 

 

                         *** MP2 UNRELAXED DENSITY ***

------------------------------------------------------------------------------
                       ORCA ELECTRIC PROPERTIES CALCULATION
------------------------------------------------------------------------------

Dipole Moment Calculation                       ... on
Quadrupole Moment Calculation                   ... off
Polarizability Calculation                      ... off
GBWName                                         ... 12h2o.su.etal.mol0,3,4,5,6,7-orca.engrad-mp2.def2tzvp.frozencore.gbw
Electron density file                           ... 12h2o.su.etal.mol0,3,4,5,6,7-orca.engrad-mp2.def2tzvp.frozencore.pmp2ur
The origin for moment calculation is the CENTER OF MASS  = ( 0.016426,  0.059687 -0.012373)

-------------
DIPOLE MOMENT
-------------
                                X             Y             Z
Electronic contribution:      0.04061       0.04399       0.15553
Nuclear contribution   :      0.14599       0.11349       1.31870
                        -----------------------------------------
Total Dipole Moment    :      0.18660       0.15748       1.47423
                        -----------------------------------------
Magnitude (a.u.)       :      1.49431
Magnitude (Debye)      :      3.79824



--------------------
Rotational spectrum 
--------------------
 
Rotational constants in cm-1:     0.075276     0.029610     0.027065 
Rotational constants in MHz :  2256.717880   887.682263   811.377094 

 Dipole components along the rotational axes: 
x,y,z [a.u.] :     1.228088     0.068378     0.848583 
x,y,z [Debye]:     3.121552     0.173803     2.156925 

 

                           *** MP2 RELAXED DENSITY ***

------------------------------------------------------------------------------
                       ORCA ELECTRIC PROPERTIES CALCULATION
------------------------------------------------------------------------------

Dipole Moment Calculation                       ... on
Quadrupole Moment Calculation                   ... off
Polarizability Calculation                      ... off
GBWName                                         ... 12h2o.su.etal.mol0,3,4,5,6,7-orca.engrad-mp2.def2tzvp.frozencore.gbw
Electron density file                           ... 12h2o.su.etal.mol0,3,4,5,6,7-orca.engrad-mp2.def2tzvp.frozencore.pmp2re
The origin for moment calculation is the CENTER OF MASS  = ( 0.016426,  0.059687 -0.012373)

-------------
DIPOLE MOMENT
-------------
                                X             Y             Z
Electronic contribution:      0.04836       0.04483       0.14705
Nuclear contribution   :      0.14599       0.11349       1.31870
                        -----------------------------------------
Total Dipole Moment    :      0.19435       0.15832       1.46575
                        -----------------------------------------
Magnitude (a.u.)       :      1.48703
Magnitude (Debye)      :      3.77974



--------------------
Rotational spectrum 
--------------------
 
Rotational constants in cm-1:     0.075276     0.029610     0.027065 
Rotational constants in MHz :  2256.717880   887.682263   811.377094 

 Dipole components along the rotational axes: 
x,y,z [a.u.] :     1.227032     0.065533     0.837477 
x,y,z [Debye]:     3.118868     0.166573     2.128698 

 

Timings for individual modules:

Sum of individual times         ...       73.187 sec (=   1.220 min)
GTO integral calculation        ...        0.950 sec (=   0.016 min)   1.3 %
SCF iterations                  ...       13.909 sec (=   0.232 min)  19.0 %
MP2 module                      ...       58.327 sec (=   0.972 min)  79.7 %
                             ****ORCA TERMINATED NORMALLY****
TOTAL RUN TIME: 0 days 0 hours 1 minutes 14 seconds 121 msec
