13
Energy:    -75.29474615
C   -1.95306594  -2.32299230   1.82032995
H   -0.96433257  -2.02357984   2.09900302
H   -2.57113337  -1.45623647   1.71250564
H   -1.91677378  -2.85295934   0.89150439
C   -2.53878244  -3.23864813   2.91125184
N   -2.97487499  -3.92039551   3.72349278
C    1.98181742   2.45073994  -1.74278296
H    2.12898563   1.39195328  -1.78982033
H    0.93504344   2.66281081  -1.67805838
H    2.47901308   2.84195725  -0.87985504
C    2.56098819   3.10631841  -3.01021268
N    2.99220715   3.59442638  -3.95387171
Cl  -0.15909181  -0.23339448  -0.10348653
