13
Energy:    -74.26777312
C   -1.63713018   0.74141894  -2.89371000
H   -2.28604087   0.24651118  -2.20169742
H   -1.89464645   1.77870922  -2.94483073
H   -0.62341315   0.64130956  -2.56621194
C   -1.79154797   0.10487507  -4.28747004
N   -1.90651903  -0.36906076  -5.32518775
C    1.53994475  -0.57539557   2.88743327
H    1.23564120   0.39334495   2.55002948
H    0.67425124  -1.17138120   3.08811955
H    2.13034691  -1.04760870   2.13024166
C    2.37412960  -0.43224983   4.17399650
N    2.99521814  -0.32567131   5.13190130
Cl  -0.81023419   0.01519845   0.25738613
