13
Energy:    -75.52538635
C    0.44377937   2.33400168   0.33011260
H    1.09298903   1.86266019  -0.37788754
H    0.00741592   1.59054740   0.96395939
H    1.00518563   3.02440495   0.92430570
C   -0.67056738   3.08873625  -0.41835721
N   -1.50024918   3.65067043  -0.97562701
C   -0.10283139  -2.28270364  -0.09560453
H   -0.41074808  -1.25885160  -0.13820149
H    0.90242476  -2.36795498  -0.45210330
H   -0.15314119  -2.62850137   0.91572724
C   -1.03407208  -3.13589829  -0.97676834
N   -1.72742311  -3.77114050  -1.63283484
Cl   2.14723770  -0.10597053   1.93327933
