13
Energy:    -75.99686331
C   -2.44737403   0.03251688  -0.32737560
H   -2.41482987  -0.18629809  -1.37425720
H   -3.01897587  -0.71872244   0.17641991
H   -1.45208628   0.04648914   0.06518799
C   -3.10400543   1.40856273  -0.11073534
N   -3.59289736   2.43309142   0.05056318
C    2.40866656  -0.46003630   0.36166512
H    1.88012149  -0.83944772  -0.48779781
H    1.70808016  -0.15709947   1.11153648
H    3.04522914  -1.22425819   0.75619278
C    3.26152429   0.74994030  -0.06282316
N    3.89651565   1.65082288  -0.37887397
Cl  -0.16996845  -2.73556115   0.22029763
