13
Energy:    -75.08869327
C    1.55081651   0.61432730  -1.63645603
H    2.03922973  -0.30798207  -1.40045150
H    0.92539037   0.47753168  -2.49379388
H    0.95320003   0.92443548  -0.80483921
C    2.60813558   1.69232470  -1.93910762
N    3.39535769   2.49494277  -2.16444548
C   -1.68676911  -0.84706844   1.52527885
H   -1.65120080  -0.05827407   0.80317185
H   -2.56325709  -1.43918048   1.36381289
H   -0.81716402  -1.46232261   1.42453961
C   -1.72805474  -0.24463683   2.94195512
N   -1.75879376   0.20390089   3.99673499
Cl  -1.26689039  -2.04799832  -1.61639959
