13
Energy:    -26.01389551
C   -0.68473513   2.28224920  -2.69085152
H   -1.47325832   2.63103054  -3.32447832
H    0.24384246   2.70733618  -3.01013793
H   -0.88263062   2.57529453  -1.68096989
C   -0.60148703   0.74668837  -2.77284359
N   -0.53950503  -0.39660646  -2.83389042
C    0.05011363  -2.66582566   2.44835797
H   -0.94295422  -2.34217922   2.21604481
H    0.26401419  -3.56981372   1.91736718
H    0.74876529  -1.90864707   2.15945396
C    0.16599615  -2.92033916   3.96275360
N    0.25227595  -3.10983603   5.09028998
Cl   3.39956267   5.97064851  -1.48109583
