13
Energy:    -79.44890588
C    0.13623407   2.57838318  -2.37419589
H   -0.77169325   2.02623745  -2.49950848
H    0.16578532   2.99765145  -1.39020405
H    0.97263507   1.92473480  -2.50864386
C    0.19664692   3.71039444  -3.41654937
N    0.24162704   4.55322828  -4.19262893
C   -0.13641833  -2.57836976   2.37420009
H   -0.60669471  -2.90186747   1.46916444
H    0.88510898  -2.32917664   2.17599858
H   -0.64647494  -1.71749971   2.75320420
C   -0.19570745  -3.71043805   3.41655617
N   -0.23985090  -4.55331435   4.19263765
Cl  -0.00119782   0.00003637  -0.00003055
