13
Energy:    -75.14968197
C   -1.66856905  -0.89727459  -1.60249597
H   -2.52540724  -1.43178930  -1.24891072
H   -1.95302642   0.10105028  -1.86197725
H   -0.92447506  -0.86782383  -0.83414977
C   -1.09689468  -1.60720288  -2.84378169
N   -0.67125712  -2.13577675  -3.76797533
C    1.40567175   1.12569135   1.74513923
H    0.67811488   0.36264363   1.56260335
H    1.49465487   1.74810413   0.87935436
H    1.09830732   1.71898327   2.58086101
C    2.76711806   0.47420254   2.05112334
N    3.78077672  -0.01086050   2.27894241
Cl  -2.38501404   1.42005265   1.06126703
