13
Energy:    -75.99164090
C   -1.12898589  -2.85637630   1.41862011
H   -1.64771201  -3.39947282   0.65647212
H   -0.35512481  -2.26710649   0.97275106
H   -1.81603840  -2.21490565   1.92986695
C   -0.50734636  -3.84607133   2.42145014
N   -0.04450747  -4.58294426   3.16810267
C    0.78047091   2.84827041  -1.53032104
H   -0.11881786   3.29138223  -1.90426195
H    0.81111284   2.94787554  -0.46540838
H    0.80272807   1.81108172  -1.79231975
C    1.99864154   3.55994138  -2.14772266
N    2.90562494   4.08981276  -2.60740623
Cl  -1.68004550   0.61851280  -0.11982305
