
                                 *****************
                                 * O   R   C   A *
                                 *****************

           --- An Ab Initio, DFT and Semiempirical electronic structure package ---

                  #######################################################
                  #                        -***-                        #
                  #          Department of theory and spectroscopy      #
                  #               Directorship: Frank Neese             #
                  #        Max Planck Institute fuer Kohlenforschung    #
                  #                Kaiser Wilhelm Platz 1               #
                  #                 D-45470 Muelheim/Ruhr               #
                  #                      Germany                        #
                  #                                                     #
                  #                  All rights reserved                #
                  #                        -***-                        #
                  #######################################################


                         Program Version 4.2.0 -  RELEASE  -


 With contributions from (in alphabetic order):
   Daniel Aravena         : Magnetic Suceptibility
   Michael Atanasov       : Ab Initio Ligand Field Theory (pilot matlab implementation)
   Alexander A. Auer      : GIAO ZORA, VPT2
   Ute Becker             : Parallelization
   Giovanni Bistoni       : ED, misc. LED, open-shell LED, HFLED
   Martin Brehm           : Molecular dynamics
   Dmytro Bykov           : SCF Hessian
   Vijay G. Chilkuri      : MRCI spin determinant printing, contributions to CSF-ICE
   Dipayan Datta          : RHF DLPNO-CCSD density
   Achintya Kumar Dutta   : EOM-CC, STEOM-CC
   Dmitry Ganyushin       : Spin-Orbit,Spin-Spin,Magnetic field MRCI
   Miquel Garcia          : C-PCM Hessian, Gaussian charge scheme
   Yang Guo               : DLPNO-NEVPT2, CIM, IAO-localization
   Andreas Hansen         : Spin unrestricted coupled pair/coupled cluster methods
   Benjamin Helmich-Paris : CASSCF linear response (MC-RPA)
   Lee Huntington         : MR-EOM, pCC
   Robert Izsak           : Overlap fitted RIJCOSX, COSX-SCS-MP3, EOM
   Christian Kollmar      : KDIIS, OOCD, Brueckner-CCSD(T), CCSD density
   Simone Kossmann        : Meta GGA functionals, TD-DFT gradient, OOMP2, MP2 Hessian
   Martin Krupicka        : AUTO-CI
   Lucas Lang             : DCDCAS
   Dagmar Lenk            : GEPOL surface, SMD
   Dimitrios Liakos       : Extrapolation schemes; Compound Job, initial MDCI parallelization
   Dimitrios Manganas     : Further ROCIS development; embedding schemes
   Dimitrios Pantazis     : SARC Basis sets
   Taras Petrenko         : DFT Hessian,TD-DFT gradient, ASA, ECA, R-Raman, ABS, FL, XAS/XES, NRVS
   Peter Pinski           : DLPNO-MP2, DLPNO-MP2 Gradient
   Christoph Reimann      : Effective Core Potentials
   Marius Retegan         : Local ZFS, SOC
   Christoph Riplinger    : Optimizer, TS searches, QM/MM, DLPNO-CCSD(T), (RO)-DLPNO pert. Triples
   Tobias Risthaus        : Range-separated hybrids, TD-DFT gradient, RPA, STAB
   Michael Roemelt        : Original ROCIS implementation
   Masaaki Saitow         : Open-shell DLPNO-CCSD energy and density
   Barbara Sandhoefer     : DKH picture change effects
   Avijit Sen             : IP-ROCIS
   Kantharuban Sivalingam : CASSCF convergence, NEVPT2, FIC-MRCI
   Bernardo de Souza      : ESD, SOC TD-DFT
   Georgi Stoychev        : AutoAux, RI-MP2 NMR
   Willem Van den Heuvel  : Paramagnetic NMR
   Boris Wezisla          : Elementary symmetry handling
   Frank Wennmohs         : Technical directorship


 We gratefully acknowledge several colleagues who have allowed us to
 interface, adapt or use parts of their codes:
   Stefan Grimme, W. Hujo, H. Kruse,             : VdW corrections, initial TS optimization,
                  C. Bannwarth                     DFT functionals, gCP, sTDA/sTD-DF
   Ed Valeev, F. Pavosevic, A. Kumar             : LibInt (2-el integral package), F12 methods
   Garnet Chan, S. Sharma, J. Yang, R. Olivares  : DMRG
   Ulf Ekstrom                                   : XCFun DFT Library
   Mihaly Kallay                                 : mrcc  (arbitrary order and MRCC methods)
   Andreas Klamt, Michael Diedenhofen            : otool_cosmo (COSMO solvation model)
   Jiri Pittner, Ondrej Demel                    : Mk-CCSD
   Frank Weinhold                                : gennbo (NPA and NBO analysis)
   Christopher J. Cramer and Donald G. Truhlar   : smd solvation model
   Lars Goerigk                                  : TD-DFT with DH, B97 family of functionals
   V. Asgeirsson, H. Jonsson                     : NEB implementation
   FAccTs GmbH                                   : IRC, NEB, NEB-TS, Multilevel, MM, QM/MM, CI optimization
   S Lehtola, MJT Oliveira, MAL Marques          : LibXC Library


 Your calculation uses the libint2 library for the computation of 2-el integrals
 For citations please refer to: http://libint.valeyev.net

 Your ORCA version has been built with support for libXC version: 4.2.3
 For citations please refer to: https://tddft.org/programs/libxc/

 This ORCA versions uses:
   CBLAS   interface :  Fast vector & matrix operations
   LAPACKE interface :  Fast linear algebra routines
   SCALAPACK package :  Parallel linear algebra routines


----- Orbital basis set information -----
Your calculation utilizes the basis: def2-TZVP
   F. Weigend and R. Ahlrichs, Phys. Chem. Chem. Phys. 7, 3297 (2005).

================================================================================
                                        WARNINGS
                       Please study these warnings very carefully!
================================================================================


WARNING: The frozen-core approximation for MP2-gradient calculations is turned on by default.

INFO   : the flag for use of LIBINT has been found!

================================================================================
                                       INPUT FILE
================================================================================
NAME = 12mecn.remya.etal.2.mol0,1,10-orca.engrad-mp2.def2tzvp.frozencore.inp
|  1> # 12mecn.remya.etal.2.mol0,1,10
|  2> ! MP2 def2-TZVP EnGrad TightSCF
|  3> 
|  4> %pal
|  5>     nprocs 6
|  6> end
|  7> 
|  8> %maxcore 8000
|  9> 
| 10> %scf
| 11>     ConvForced true
| 12> end
| 13> 
| 14> *xyz 0 1
| 15> C  -0.869520000  -3.929380000   1.700199000
| 16> H  -0.057420000  -3.268850000   2.015352000
| 17> H  -0.697530000  -4.930670000   2.101524000
| 18> H  -1.821490000  -3.546590000   2.077146000
| 19> C  -0.916080000  -3.969960000   0.256749000
| 20> N  -0.955390000  -3.995980000  -0.909290000
| 21> C  -4.697980000  -0.249690000   1.746215000
| 22> H  -4.927570000   0.755530000   2.111799000
| 23> H  -3.709180000  -0.561560000   2.093253000
| 24> H  -5.432280000  -0.961520000   2.128066000
| 25> C  -4.714100000  -0.247110000   0.301670000
| 26> N  -4.729750000  -0.234960000  -0.865260000
| 27> C   4.602033000   0.321019000  -1.784800000
| 28> H   4.827650000  -0.662160000  -2.207910000
| 29> H   5.320558000   1.057980000  -2.148500000
| 30> H   3.601982000   0.643751000  -2.087520000
| 31> C   4.654967000   0.244048000  -0.343060000
| 32> N   4.691648000   0.166590000   0.820757000
| 33> *
| 34> 
| 35>                          ****END OF INPUT****
================================================================================

                     *******************************
                     * Energy+Gradient Calculation *
                     *******************************

---------------------------------
CARTESIAN COORDINATES (ANGSTROEM)
---------------------------------
  C     -0.869520   -3.929380    1.700199
  H     -0.057420   -3.268850    2.015352
  H     -0.697530   -4.930670    2.101524
  H     -1.821490   -3.546590    2.077146
  C     -0.916080   -3.969960    0.256749
  N     -0.955390   -3.995980   -0.909290
  C     -4.697980   -0.249690    1.746215
  H     -4.927570    0.755530    2.111799
  H     -3.709180   -0.561560    2.093253
  H     -5.432280   -0.961520    2.128066
  C     -4.714100   -0.247110    0.301670
  N     -4.729750   -0.234960   -0.865260
  C      4.602033    0.321019   -1.784800
  H      4.827650   -0.662160   -2.207910
  H      5.320558    1.057980   -2.148500
  H      3.601982    0.643751   -2.087520
  C      4.654967    0.244048   -0.343060
  N      4.691648    0.166590    0.820757

----------------------------
CARTESIAN COORDINATES (A.U.)
----------------------------
  NO LB      ZA    FRAG     MASS         X           Y           Z
   0 C     6.0000    0    12.011   -1.643155   -7.425452    3.212910
   1 H     1.0000    0     1.008   -0.108508   -6.177231    3.808463
   2 H     1.0000    0     1.008   -1.318141   -9.317616    3.971305
   3 H     1.0000    0     1.008   -3.442117   -6.702084    3.925237
   4 C     6.0000    0    12.011   -1.731140   -7.502137    0.485185
   5 N     7.0000    0    14.007   -1.805425   -7.551308   -1.718309
   6 C     6.0000    0    12.011   -8.877896   -0.471846    3.299868
   7 H     1.0000    0     1.008   -9.311758    1.427745    3.990722
   8 H     1.0000    0     1.008   -7.009334   -1.061195    3.955675
   9 H     1.0000    0     1.008  -10.265521   -1.817009    4.021462
  10 C     6.0000    0    12.011   -8.908358   -0.466970    0.570074
  11 N     7.0000    0    14.007   -8.937932   -0.444010   -1.635104
  12 C     6.0000    0    12.011    8.696582    0.606638   -3.372783
  13 H     1.0000    0     1.008    9.122936   -1.251301   -4.172345
  14 H     1.0000    0     1.008   10.054397    1.999292   -4.060077
  15 H     1.0000    0     1.008    6.806760    1.216513   -3.944841
  16 C     6.0000    0    12.011    8.796613    0.461184   -0.648289
  17 N     7.0000    0    14.007    8.865930    0.314809    1.551006

--------------------------------
INTERNAL COORDINATES (ANGSTROEM)
--------------------------------
 C      0   0   0     0.000000000000     0.00000000     0.00000000
 H      1   0   0     1.093218964485     0.00000000     0.00000000
 H      1   2   0     1.092347920685   109.32735472     0.00000000
 H      1   2   3     1.093098397130   109.63009885   119.86690662
 C      1   2   3     1.444770733542   109.20363402   239.27834980
 N      5   1   2     1.166991544966   179.65780255   294.97577729
 C      4   1   2     4.387853650347   143.90409828    67.01149066
 H      7   4   1     1.093997476028   143.39548984   274.71701792
 H      7   4   1     1.093354338878    33.78512473   288.96408791
 H      7   4   1     1.091654077582    85.67789748   156.55844139
 C      7   4   1     1.444637244371    94.82265768    46.72700231
 N     11   7   4     1.167098183488   179.48927802   206.44026684
 C      2   1   3     7.002772088214   130.35879262   119.14418123
 H     13   2   1     1.093876614994    83.47595479   304.40507189
 H     13   2   1     1.091635186839   164.76003664   151.48626022
 H     13   2   1     1.093570914402    72.12360545    58.21153729
 C     13   2   1     1.444763223091    57.01214659   186.31364876
 N     17  13   2     1.166968400178   179.19159853    33.19227654

---------------------------
INTERNAL COORDINATES (A.U.)
---------------------------
 C      0   0   0     0.000000000000     0.00000000     0.00000000
 H      1   0   0     2.065884447285     0.00000000     0.00000000
 H      1   2   0     2.064238413053   109.32735472     0.00000000
 H      1   2   3     2.065656608005   109.63009885   119.86690662
 C      1   2   3     2.730221012699   109.20363402   239.27834980
 N      5   1   2     2.205294420586   179.65780255   294.97577729
 C      4   1   2     8.291841714882   143.90409828    67.01149066
 H      7   4   1     2.067355620894   143.39548984   274.71701792
 H      7   4   1     2.066140267815    33.78512473   288.96408791
 H      7   4   1     2.062927239608    85.67789748   156.55844139
 C      7   4   1     2.729968754725    94.82265768    46.72700231
 N     11   7   4     2.205495938188   179.48927802   206.44026684
 C      2   1   3    13.233321424993   130.35879262   119.14418123
 H     13   2   1     2.067127226639    83.47595479   304.40507189
 H     13   2   1     2.062891541279   164.76003664   151.48626022
 H     13   2   1     2.066549536241    72.12360545    58.21153729
 C     13   2   1     2.730206820004    57.01214659   186.31364876
 N     17  13   2     2.205250683277   179.19159853    33.19227654

---------------------
BASIS SET INFORMATION
---------------------
There are 3 groups of distinct atoms

 Group   1 Type C   : 11s6p2d1f contracted to 5s3p2d1f pattern {62111/411/11/1}
 Group   2 Type H   : 5s1p contracted to 3s1p pattern {311/1}
 Group   3 Type N   : 11s6p2d1f contracted to 5s3p2d1f pattern {62111/411/11/1}

Atom   0C    basis set group =>   1
Atom   1H    basis set group =>   2
Atom   2H    basis set group =>   2
Atom   3H    basis set group =>   2
Atom   4C    basis set group =>   1
Atom   5N    basis set group =>   3
Atom   6C    basis set group =>   1
Atom   7H    basis set group =>   2
Atom   8H    basis set group =>   2
Atom   9H    basis set group =>   2
Atom  10C    basis set group =>   1
Atom  11N    basis set group =>   3
Atom  12C    basis set group =>   1
Atom  13H    basis set group =>   2
Atom  14H    basis set group =>   2
Atom  15H    basis set group =>   2
Atom  16C    basis set group =>   1
Atom  17N    basis set group =>   3


           ************************************************************
           *        Program running with 6 parallel MPI-processes     *
           *              working on a common directory               *
           ************************************************************
------------------------------------------------------------------------------
                           ORCA GTO INTEGRAL CALCULATION
------------------------------------------------------------------------------

                         BASIS SET STATISTICS AND STARTUP INFO

 # of primitive gaussian shells          ...  234
 # of primitive gaussian functions       ...  486
 # of contracted shells                  ...  135
 # of contracted basis functions         ...  333
 Highest angular momentum                ...    3
 Maximum contraction depth               ...    6
 Integral package used                   ... LIBINT
 Integral threshhold            Thresh   ...  2.500e-11
 Primitive cut-off              TCut     ...  2.500e-12


------------------------------ INTEGRAL EVALUATION ----------------------------


 * One electron integrals 
 Pre-screening matrix                    ... done
 Shell pair data                         ... done (   0.001 sec)



           ************************************************************
           *        Program running with 6 parallel MPI-processes     *
           *              working on a common directory               *
           ************************************************************
-------------------------------------------------------------------------------
                                 ORCA SCF
-------------------------------------------------------------------------------

------------
SCF SETTINGS
------------
Hamiltonian:
 Ab initio Hamiltonian  Method          .... Hartree-Fock(GTOs)


General Settings:
 Integral files         IntName         .... 12mecn.remya.etal.2.mol0,1,10-orca.engrad-mp2.def2tzvp.frozencore
 Hartree-Fock type      HFTyp           .... RHF
 Total Charge           Charge          ....    0
 Multiplicity           Mult            ....    1
 Number of Electrons    NEL             ....   66
 Basis Dimension        Dim             ....  333
 Nuclear Repulsion      ENuc            ....    283.7633435855 Eh

Convergence Acceleration:
 DIIS                   CNVDIIS         .... on
   Start iteration      DIISMaxIt       ....    12
   Startup error        DIISStart       ....  0.200000
   # of expansion vecs  DIISMaxEq       ....     5
   Bias factor          DIISBfac        ....   1.050
   Max. coefficient     DIISMaxC        ....  10.000
 Newton-Raphson         CNVNR           .... off
 SOSCF                  CNVSOSCF        .... on
   Start iteration      SOSCFMaxIt      ....   150
   Startup grad/error   SOSCFStart      ....  0.003300
 Level Shifting         CNVShift        .... on
   Level shift para.    LevelShift      ....    0.2500
   Turn off err/grad.   ShiftErr        ....    0.0010
 Zerner damping         CNVZerner       .... off
 Static damping         CNVDamp         .... on
   Fraction old density DampFac         ....    0.7000
   Max. Damping (<1)    DampMax         ....    0.9800
   Min. Damping (>=0)   DampMin         ....    0.0000
   Turn off err/grad.   DampErr         ....    0.1000
 Fernandez-Rico         CNVRico         .... off

SCF Procedure:
 Maximum # iterations   MaxIter         ....   125
 SCF integral mode      SCFMode         .... Direct
   Integral package                     .... LIBINT
 Reset frequency        DirectResetFreq ....    20
 Integral Threshold     Thresh          ....  2.500e-11 Eh
 Primitive CutOff       TCut            ....  2.500e-12 Eh

Convergence Tolerance:
 Convergence Check Mode ConvCheckMode   .... Total+1el-Energy
 Convergence forced     ConvForced      .... 1
 Energy Change          TolE            ....  1.000e-08 Eh
 1-El. energy change                    ....  1.000e-05 Eh
 Orbital Gradient       TolG            ....  1.000e-05
 Orbital Rotation angle TolX            ....  1.000e-05
 DIIS Error             TolErr          ....  5.000e-07


Diagonalization of the overlap matrix:
Smallest eigenvalue                        ... 1.550e-04
Time for diagonalization                   ...    0.168 sec
Threshold for overlap eigenvalues          ... 1.000e-08
Number of eigenvalues below threshold      ... 0
Time for construction of square roots      ...    0.009 sec
Total time needed                          ...    0.177 sec

-------------------
DFT GRID GENERATION
-------------------

General Integration Accuracy     IntAcc      ...  4.340
Radial Grid Type                 RadialGrid  ... Gauss-Chebyshev
Angular Grid (max. acc.)         AngularGrid ... Lebedev-110
Angular grid pruning method      GridPruning ... 3 (G Style)
Weight generation scheme         WeightScheme... Becke
Basis function cutoff            BFCut       ...    1.0000e-11
Integration weight cutoff        WCut        ...    1.0000e-14
Grids for H and He will be reduced by one unit

# of grid points (after initial pruning)     ...  22188 (   0.0 sec)
# of grid points (after weights+screening)   ...  21181 (   0.0 sec)
nearest neighbour list constructed           ...    0.0 sec
Grid point re-assignment to atoms done       ...    0.0 sec
Grid point division into batches done        ...    0.0 sec
Reduced shell lists constructed in    0.0 sec

Total number of grid points                  ...    21181
Total number of batches                      ...      341
Average number of points per batch           ...       62
Average number of grid points per atom       ...     1177
Average number of shells per batch           ...    57.33 (42.46%)
Average number of basis functions per batch  ...   132.12 (39.68%)
Average number of large shells per batch     ...    39.28 (68.51%)
Average number of large basis fcns per batch ...    92.48 (70.00%)
Maximum spatial batch extension              ...  17.79, 15.68, 19.39 au
Average spatial batch extension              ...   0.66,  0.64,  0.75 au

Time for grid setup =    0.068 sec

------------------------------
INITIAL GUESS: MODEL POTENTIAL
------------------------------
Loading Hartree-Fock densities                     ... done
Calculating cut-offs                               ... done
Setting up the integral package                    ... done
Initializing the effective Hamiltonian             ... done
Starting the Coulomb interaction                   ... done (   0.0 sec)
Reading the grid                                   ... done
Mapping shells                                     ... done
Starting the XC term evaluation                    ... done (   0.0 sec)
Transforming the Hamiltonian                       ... done (   0.0 sec)
Diagonalizing the Hamiltonian                      ... done (   0.0 sec)
Back transforming the eigenvectors                 ... done (   0.0 sec)
Now organizing SCF variables                       ... done
                      ------------------
                      INITIAL GUESS DONE (   0.2 sec)
                      ------------------
--------------
SCF ITERATIONS
--------------
ITER       Energy         Delta-E        Max-DP      RMS-DP      [F,P]     Damp
               ***  Starting incremental Fock matrix formation  ***
  0   -395.4180972830   0.000000000000 0.03806110  0.00086925  0.2847726 0.7000
  1   -395.5995298633  -0.181432580365 0.02724354  0.00068971  0.1879548 0.7000
                               ***Turning on DIIS***
  2   -395.7051990501  -0.105669186763 0.01619647  0.00044684  0.1422113 0.7000
  3   -396.6540543735  -0.948855323412 0.00993506  0.00028404  0.1056702 0.7000
  4   -396.6087313363   0.045323037148 0.02704158  0.00069399  0.0744572 0.0000
  5   -395.9514539522   0.657277384189 0.00637571  0.00012592  0.0062146 0.0000
                      *** Initiating the SOSCF procedure ***
                           *** Shutting down DIIS ***
                      *** Re-Reading the Fockian *** 
                      *** Removing any level shift *** 
ITER      Energy       Delta-E        Grad      Rot      Max-DP    RMS-DP
  6   -395.93330530   0.0181486515  0.001162  0.001162  0.004353  0.000079
               *** Restarting incremental Fock matrix formation ***
  7   -395.92250089   0.0108044127  0.000388  0.000572  0.003052  0.000056
  8   -395.92251963  -0.0000187441  0.000312  0.000474  0.002527  0.000047
  9   -395.92252356  -0.0000039312  0.000119  0.000146  0.000794  0.000014
 10   -395.92252431  -0.0000007482  0.000011  0.000011  0.000069  0.000001
 11   -395.92252432  -0.0000000085  0.000008  0.000008  0.000020  0.000000
                  ***Gradient check signals convergence***
              ***Rediagonalizing the Fockian in SOSCF/NRSCF***

               *****************************************************
               *                     SUCCESS                       *
               *           SCF CONVERGED AFTER  12 CYCLES          *
               *****************************************************


----------------
TOTAL SCF ENERGY
----------------

Total Energy       :         -395.92252432 Eh          -10773.59961 eV

Components:
Nuclear Repulsion  :          283.76334359 Eh            7721.59314 eV
Electronic Energy  :         -679.68586791 Eh          -18495.19274 eV
One Electron Energy:        -1096.35874437 Eh          -29833.43814 eV
Two Electron Energy:          416.67287646 Eh           11338.24539 eV

Virial components:
Potential Energy   :         -791.04811388 Eh          -21525.51351 eV
Kinetic Energy     :          395.12558956 Eh           10751.91391 eV
Virial Ratio       :            2.00201692


---------------
SCF CONVERGENCE
---------------

  Last Energy change         ...   -1.8802e-09  Tolerance :   1.0000e-08
  Last MAX-Density change    ...    9.8826e-06  Tolerance :   1.0000e-07
  Last RMS-Density change    ...    1.5164e-07  Tolerance :   5.0000e-09
  Last Orbital Gradient      ...    2.1822e-06  Tolerance :   1.0000e-05
  Last Orbital Rotation      ...    4.1471e-06  Tolerance :   1.0000e-05

             **** THE GBW FILE WAS UPDATED (12mecn.remya.etal.2.mol0,1,10-orca.engrad-mp2.def2tzvp.frozencore.gbw) ****
             **** DENSITY FILE WAS UPDATED (12mecn.remya.etal.2.mol0,1,10-orca.engrad-mp2.def2tzvp.frozencore.scfp) ****
             **** ENERGY FILE WAS UPDATED (12mecn.remya.etal.2.mol0,1,10-orca.engrad-mp2.def2tzvp.frozencore.en.tmp) ****
             **** THE GBW FILE WAS UPDATED (12mecn.remya.etal.2.mol0,1,10-orca.engrad-mp2.def2tzvp.frozencore.gbw) ****
             **** DENSITY FILE WAS UPDATED (12mecn.remya.etal.2.mol0,1,10-orca.engrad-mp2.def2tzvp.frozencore.scfp) ****
----------------
ORBITAL ENERGIES
----------------

  NO   OCC          E(Eh)            E(eV) 
   0   2.0000     -15.573642      -423.7804 
   1   2.0000     -15.573107      -423.7658 
   2   2.0000     -15.573014      -423.7633 
   3   2.0000     -11.287834      -307.1576 
   4   2.0000     -11.286439      -307.1196 
   5   2.0000     -11.283210      -307.0318 
   6   2.0000     -11.280611      -306.9610 
   7   2.0000     -11.279844      -306.9402 
   8   2.0000     -11.279473      -306.9301 
   9   2.0000      -1.214689       -33.0534 
  10   2.0000      -1.214314       -33.0432 
  11   2.0000      -1.213910       -33.0322 
  12   2.0000      -1.046474       -28.4760 
  13   2.0000      -1.045312       -28.4444 
  14   2.0000      -1.042974       -28.3808 
  15   2.0000      -0.702187       -19.1075 
  16   2.0000      -0.701035       -19.0761 
  17   2.0000      -0.698895       -19.0179 
  18   2.0000      -0.637048       -17.3350 
  19   2.0000      -0.634190       -17.2572 
  20   2.0000      -0.633090       -17.2272 
  21   2.0000      -0.632773       -17.2186 
  22   2.0000      -0.632493       -17.2110 
  23   2.0000      -0.628380       -17.0991 
  24   2.0000      -0.556419       -15.1409 
  25   2.0000      -0.555489       -15.1156 
  26   2.0000      -0.555146       -15.1063 
  27   2.0000      -0.458000       -12.4628 
  28   2.0000      -0.457984       -12.4624 
  29   2.0000      -0.457454       -12.4479 
  30   2.0000      -0.457426       -12.4472 
  31   2.0000      -0.457074       -12.4376 
  32   2.0000      -0.456612       -12.4251 
  33   0.0000       0.093951         2.5565 
  34   0.0000       0.121095         3.2952 
  35   0.0000       0.133471         3.6319 
  36   0.0000       0.163164         4.4399 
  37   0.0000       0.169265         4.6059 
  38   0.0000       0.170336         4.6351 
  39   0.0000       0.172245         4.6870 
  40   0.0000       0.173472         4.7204 
  41   0.0000       0.177376         4.8266 
  42   0.0000       0.186412         5.0725 
  43   0.0000       0.202487         5.5100 
  44   0.0000       0.208377         5.6702 
  45   0.0000       0.213653         5.8138 
  46   0.0000       0.221709         6.0330 
  47   0.0000       0.224621         6.1122 
  48   0.0000       0.225908         6.1473 
  49   0.0000       0.227820         6.1993 
  50   0.0000       0.241342         6.5673 
  51   0.0000       0.254600         6.9280 
  52   0.0000       0.265037         7.2120 
  53   0.0000       0.268186         7.2977 
  54   0.0000       0.317658         8.6439 
  55   0.0000       0.319061         8.6821 
  56   0.0000       0.321378         8.7452 
  57   0.0000       0.325422         8.8552 
  58   0.0000       0.328311         8.9338 
  59   0.0000       0.353462         9.6182 
  60   0.0000       0.362006         9.8507 
  61   0.0000       0.376058        10.2330 
  62   0.0000       0.381553        10.3826 
  63   0.0000       0.381915        10.3924 
  64   0.0000       0.387928        10.5561 
  65   0.0000       0.402607        10.9555 
  66   0.0000       0.408173        11.1070 
  67   0.0000       0.421006        11.4562 
  68   0.0000       0.427525        11.6336 
  69   0.0000       0.496548        13.5118 
  70   0.0000       0.499022        13.5791 
  71   0.0000       0.504802        13.7364 
  72   0.0000       0.530338        14.4312 
  73   0.0000       0.533650        14.5214 
  74   0.0000       0.538928        14.6650 
  75   0.0000       0.576609        15.6903 
  76   0.0000       0.588921        16.0254 
  77   0.0000       0.592700        16.1282 
  78   0.0000       0.598554        16.2875 
  79   0.0000       0.599988        16.3265 
  80   0.0000       0.602000        16.3813 
  81   0.0000       0.605081        16.4651 
  82   0.0000       0.608511        16.5584 
  83   0.0000       0.610782        16.6202 
  84   0.0000       0.657916        17.9028 
  85   0.0000       0.660001        17.9595 
  86   0.0000       0.660182        17.9645 
  87   0.0000       0.661479        17.9998 
  88   0.0000       0.662391        18.0246 
  89   0.0000       0.674183        18.3454 
  90   0.0000       0.704698        19.1758 
  91   0.0000       0.706138        19.2150 
  92   0.0000       0.730352        19.8739 
  93   0.0000       0.796535        21.6748 
  94   0.0000       0.808987        22.0137 
  95   0.0000       0.811837        22.0912 
  96   0.0000       0.813125        22.1263 
  97   0.0000       0.815144        22.1812 
  98   0.0000       0.815412        22.1885 
  99   0.0000       0.816343        22.2138 
 100   0.0000       0.817778        22.2529 
 101   0.0000       0.842134        22.9156 
 102   0.0000       0.915721        24.9180 
 103   0.0000       0.917655        24.9707 
 104   0.0000       0.918952        25.0059 
 105   0.0000       0.919838        25.0301 
 106   0.0000       0.920632        25.0517 
 107   0.0000       0.926849        25.2208 
 108   0.0000       1.022759        27.8307 
 109   0.0000       1.032700        28.1012 
 110   0.0000       1.042045        28.3555 
 111   0.0000       1.118461        30.4349 
 112   0.0000       1.123377        30.5686 
 113   0.0000       1.123628        30.5755 
 114   0.0000       1.125832        30.6355 
 115   0.0000       1.127388        30.6778 
 116   0.0000       1.148038        31.2397 
 117   0.0000       1.320580        35.9348 
 118   0.0000       1.323258        36.0077 
 119   0.0000       1.323464        36.0133 
 120   0.0000       1.418405        38.5968 
 121   0.0000       1.420251        38.6470 
 122   0.0000       1.421191        38.6726 
 123   0.0000       1.423381        38.7322 
 124   0.0000       1.424496        38.7625 
 125   0.0000       1.427799        38.8524 
 126   0.0000       1.449163        39.4337 
 127   0.0000       1.449254        39.4362 
 128   0.0000       1.450959        39.4826 
 129   0.0000       1.468985        39.9731 
 130   0.0000       1.469990        40.0005 
 131   0.0000       1.472055        40.0567 
 132   0.0000       1.474719        40.1291 
 133   0.0000       1.475105        40.1397 
 134   0.0000       1.478136        40.2221 
 135   0.0000       1.508864        41.0583 
 136   0.0000       1.511952        41.1423 
 137   0.0000       1.514786        41.2194 
 138   0.0000       1.679291        45.6958 
 139   0.0000       1.695139        46.1271 
 140   0.0000       1.697986        46.2045 
 141   0.0000       1.698503        46.2186 
 142   0.0000       1.703521        46.3552 
 143   0.0000       1.727287        47.0019 
 144   0.0000       1.737360        47.2760 
 145   0.0000       1.739287        47.3284 
 146   0.0000       1.743201        47.4349 
 147   0.0000       1.748485        47.5787 
 148   0.0000       1.749343        47.6020 
 149   0.0000       1.754867        47.7524 
 150   0.0000       1.793430        48.8017 
 151   0.0000       1.798682        48.9446 
 152   0.0000       1.799543        48.9681 
 153   0.0000       1.806373        49.1539 
 154   0.0000       1.816825        49.4383 
 155   0.0000       1.824123        49.6369 
 156   0.0000       1.932660        52.5904 
 157   0.0000       1.934750        52.6472 
 158   0.0000       1.935416        52.6654 
 159   0.0000       1.936040        52.6823 
 160   0.0000       1.936384        52.6917 
 161   0.0000       1.944717        52.9184 
 162   0.0000       1.968050        53.5534 
 163   0.0000       1.970175        53.6112 
 164   0.0000       1.972120        53.6641 
 165   0.0000       2.223027        60.4916 
 166   0.0000       2.224902        60.5426 
 167   0.0000       2.229040        60.6553 
 168   0.0000       2.238218        60.9050 
 169   0.0000       2.238951        60.9250 
 170   0.0000       2.243889        61.0593 
 171   0.0000       2.245925        61.1147 
 172   0.0000       2.250322        61.2344 
 173   0.0000       2.254990        61.3614 
 174   0.0000       2.341197        63.7072 
 175   0.0000       2.342868        63.7527 
 176   0.0000       2.352573        64.0168 
 177   0.0000       2.540994        69.1440 
 178   0.0000       2.545240        69.2595 
 179   0.0000       2.545678        69.2714 
 180   0.0000       2.551886        69.4403 
 181   0.0000       2.555049        69.5264 
 182   0.0000       2.567514        69.8656 
 183   0.0000       2.571875        69.9843 
 184   0.0000       2.577729        70.1436 
 185   0.0000       2.602512        70.8179 
 186   0.0000       2.614367        71.1405 
 187   0.0000       2.616915        71.2099 
 188   0.0000       2.619373        71.2768 
 189   0.0000       2.624854        71.4259 
 190   0.0000       2.630967        71.5923 
 191   0.0000       2.642565        71.9078 
 192   0.0000       2.704280        73.5872 
 193   0.0000       2.705343        73.6161 
 194   0.0000       2.707272        73.6686 
 195   0.0000       2.732763        74.3622 
 196   0.0000       2.736228        74.4565 
 197   0.0000       2.739500        74.5456 
 198   0.0000       2.745441        74.7073 
 199   0.0000       2.747296        74.7577 
 200   0.0000       2.749595        74.8203 
 201   0.0000       2.912123        79.2429 
 202   0.0000       2.912166        79.2441 
 203   0.0000       2.913032        79.2676 
 204   0.0000       2.913085        79.2691 
 205   0.0000       2.913171        79.2714 
 206   0.0000       2.913827        79.2893 
 207   0.0000       2.946102        80.1675 
 208   0.0000       2.947686        80.2106 
 209   0.0000       2.948702        80.2383 
 210   0.0000       2.953162        80.3596 
 211   0.0000       2.954678        80.4009 
 212   0.0000       2.957283        80.4718 
 213   0.0000       3.017687        82.1154 
 214   0.0000       3.024394        82.2979 
 215   0.0000       3.025375        82.3246 
 216   0.0000       3.085125        83.9505 
 217   0.0000       3.086281        83.9820 
 218   0.0000       3.089386        84.0665 
 219   0.0000       3.092958        84.1637 
 220   0.0000       3.095393        84.2299 
 221   0.0000       3.097638        84.2910 
 222   0.0000       3.235730        88.0487 
 223   0.0000       3.236381        88.0664 
 224   0.0000       3.238241        88.1170 
 225   0.0000       3.244174        88.2785 
 226   0.0000       3.244531        88.2882 
 227   0.0000       3.245708        88.3202 
 228   0.0000       3.246905        88.3528 
 229   0.0000       3.247729        88.3752 
 230   0.0000       3.249130        88.4133 
 231   0.0000       3.330663        90.6320 
 232   0.0000       3.331390        90.6517 
 233   0.0000       3.331573        90.6567 
 234   0.0000       3.334382        90.7331 
 235   0.0000       3.335642        90.7674 
 236   0.0000       3.336751        90.7976 
 237   0.0000       3.441427        93.6460 
 238   0.0000       3.442408        93.6727 
 239   0.0000       3.442476        93.6745 
 240   0.0000       3.445700        93.7623 
 241   0.0000       3.447546        93.8125 
 242   0.0000       3.454090        93.9906 
 243   0.0000       3.484229        94.8107 
 244   0.0000       3.487139        94.8899 
 245   0.0000       3.491672        95.0132 
 246   0.0000       3.635108        98.9163 
 247   0.0000       3.635594        98.9295 
 248   0.0000       3.636226        98.9467 
 249   0.0000       3.652334        99.3851 
 250   0.0000       3.654089        99.4328 
 251   0.0000       3.656694        99.5037 
 252   0.0000       3.799046       103.3773 
 253   0.0000       3.799833       103.3987 
 254   0.0000       3.801665       103.4486 
 255   0.0000       3.803302       103.4931 
 256   0.0000       3.804569       103.5276 
 257   0.0000       3.807570       103.6093 
 258   0.0000       3.925772       106.8257 
 259   0.0000       3.928934       106.9117 
 260   0.0000       3.929350       106.9230 
 261   0.0000       3.947015       107.4037 
 262   0.0000       3.949578       107.4735 
 263   0.0000       3.950569       107.5005 
 264   0.0000       3.953562       107.5819 
 265   0.0000       3.954767       107.6147 
 266   0.0000       3.958984       107.7294 
 267   0.0000       4.239913       115.3739 
 268   0.0000       4.242300       115.4388 
 269   0.0000       4.248596       115.6102 
 270   0.0000       4.250761       115.6691 
 271   0.0000       4.254884       115.7813 
 272   0.0000       4.256308       115.8200 
 273   0.0000       4.341670       118.1429 
 274   0.0000       4.342277       118.1594 
 275   0.0000       4.342719       118.1714 
 276   0.0000       4.346451       118.2730 
 277   0.0000       4.347040       118.2890 
 278   0.0000       4.347455       118.3003 
 279   0.0000       4.562465       124.1510 
 280   0.0000       4.564935       124.2182 
 281   0.0000       4.565322       124.2287 
 282   0.0000       4.738035       128.9285 
 283   0.0000       4.739253       128.9616 
 284   0.0000       4.747898       129.1969 
 285   0.0000       4.749123       129.2302 
 286   0.0000       4.758491       129.4851 
 287   0.0000       4.760393       129.5369 
 288   0.0000       4.832187       131.4905 
 289   0.0000       4.839734       131.6959 
 290   0.0000       4.852149       132.0337 
 291   0.0000       4.960491       134.9818 
 292   0.0000       4.960708       134.9877 
 293   0.0000       4.961325       135.0045 
 294   0.0000       4.961627       135.0127 
 295   0.0000       4.961925       135.0208 
 296   0.0000       4.962236       135.0293 
 297   0.0000       5.066564       137.8682 
 298   0.0000       5.066748       137.8732 
 299   0.0000       5.068016       137.9077 
 300   0.0000       5.068249       137.9141 
 301   0.0000       5.068541       137.9220 
 302   0.0000       5.069217       137.9404 
 303   0.0000       5.198134       141.4484 
 304   0.0000       5.200183       141.5042 
 305   0.0000       5.203597       141.5971 
 306   0.0000       5.555761       151.1800 
 307   0.0000       5.556780       151.2077 
 308   0.0000       5.557743       151.2339 
 309   0.0000       5.557817       151.2359 
 310   0.0000       5.558580       151.2566 
 311   0.0000       5.563103       151.3797 
 312   0.0000       6.020929       163.8378 
 313   0.0000       6.021838       163.8625 
 314   0.0000       6.024277       163.9289 
 315   0.0000       6.081176       165.4772 
 316   0.0000       6.085337       165.5904 
 317   0.0000       6.086578       165.6242 
 318   0.0000       6.087318       165.6443 
 319   0.0000       6.089561       165.7054 
 320   0.0000       6.103475       166.0840 
 321   0.0000       6.463895       175.8915 
 322   0.0000       6.463918       175.8921 
 323   0.0000       6.464912       175.9192 
 324   0.0000      23.464468       638.5006 
 325   0.0000      23.472728       638.7254 
 326   0.0000      23.477458       638.8541 
 327   0.0000      24.381370       663.4508 
 328   0.0000      24.381716       663.4602 
 329   0.0000      24.386515       663.5908 
 330   0.0000      33.378132       908.2652 
 331   0.0000      33.392649       908.6602 
 332   0.0000      33.426494       909.5811 

                    ********************************
                    * MULLIKEN POPULATION ANALYSIS *
                    ********************************

-----------------------
MULLIKEN ATOMIC CHARGES
-----------------------
   0 C :   -0.166877
   1 H :    0.162187
   2 H :    0.158272
   3 H :    0.143889
   4 C :   -0.106598
   5 N :   -0.190867
   6 C :   -0.167168
   7 H :    0.159450
   8 H :    0.146988
   9 H :    0.156163
  10 C :   -0.107499
  11 N :   -0.187947
  12 C :   -0.164007
  13 H :    0.158127
  14 H :    0.154814
  15 H :    0.159026
  16 C :   -0.103945
  17 N :   -0.204008
Sum of atomic charges:    0.0000000

--------------------------------
MULLIKEN REDUCED ORBITAL CHARGES
--------------------------------
  0 C s       :     3.149563  s :     3.149563
      pz      :     0.796245  p :     2.951428
      px      :     1.070923
      py      :     1.084261
      dz2     :     0.017886  d :     0.062407
      dxz     :     0.011132
      dyz     :     0.011949
      dx2y2   :     0.010053
      dxy     :     0.011388
      f0      :     0.001702  f :     0.003478
      f+1     :     0.000213
      f-1     :     0.000214
      f+2     :     0.000079
      f-2     :     0.000053
      f+3     :     0.000250
      f-3     :     0.000968
  1 H s       :     0.815413  s :     0.815413
      pz      :     0.004494  p :     0.022400
      px      :     0.010047
      py      :     0.007859
  2 H s       :     0.819304  s :     0.819304
      pz      :     0.005143  p :     0.022423
      px      :     0.003971
      py      :     0.013309
  3 H s       :     0.833840  s :     0.833840
      pz      :     0.004954  p :     0.022271
      px      :     0.012250
      py      :     0.005068
  4 C s       :     3.232438  s :     3.232438
      pz      :     0.965011  p :     2.743149
      px      :     0.888751
      py      :     0.889387
      dz2     :     0.026838  d :     0.113647
      dxz     :     0.043249
      dyz     :     0.042870
      dx2y2   :     0.000138
      dxy     :     0.000551
      f0      :     0.004143  f :     0.017364
      f+1     :     0.006547
      f-1     :     0.006559
      f+2     :     0.000039
      f-2     :     0.000077
      f+3     :     0.000000
      f-3     :     0.000000
  5 N s       :     3.719180  s :     3.719180
      pz      :     1.285211  p :     3.413571
      px      :     1.065019
      py      :     1.063342
      dz2     :     0.011741  d :     0.055152
      dxz     :     0.021654
      dyz     :     0.021683
      dx2y2   :     0.000040
      dxy     :     0.000034
      f0      :     0.000626  f :     0.002964
      f+1     :     0.001163
      f-1     :     0.001166
      f+2     :     0.000005
      f-2     :     0.000005
      f+3     :     0.000000
      f-3     :     0.000000
  6 C s       :     3.149400  s :     3.149400
      pz      :     0.797050  p :     2.951713
      px      :     1.072210
      py      :     1.082454
      dz2     :     0.017904  d :     0.062575
      dxz     :     0.011316
      dyz     :     0.011919
      dx2y2   :     0.010683
      dxy     :     0.010754
      f0      :     0.001717  f :     0.003480
      f+1     :     0.000206
      f-1     :     0.000208
      f+2     :     0.000052
      f-2     :     0.000076
      f+3     :     0.000492
      f-3     :     0.000728
  7 H s       :     0.818182  s :     0.818182
      pz      :     0.004825  p :     0.022368
      px      :     0.004139
      py      :     0.013404
  8 H s       :     0.830722  s :     0.830722
      pz      :     0.004732  p :     0.022290
      px      :     0.012961
      py      :     0.004597
  9 H s       :     0.821445  s :     0.821445
      pz      :     0.004999  p :     0.022392
      px      :     0.008855
      py      :     0.008537
 10 C s       :     3.231717  s :     3.231717
      pz      :     0.963898  p :     2.744893
      px      :     0.890505
      py      :     0.890490
      dz2     :     0.026869  d :     0.113518
      dxz     :     0.043156
      dyz     :     0.042932
      dx2y2   :     0.000299
      dxy     :     0.000263
      f0      :     0.004129  f :     0.017370
      f+1     :     0.006583
      f-1     :     0.006590
      f+2     :     0.000037
      f-2     :     0.000031
      f+3     :     0.000000
      f-3     :     0.000000
 11 N s       :     3.720421  s :     3.720421
      pz      :     1.284666  p :     3.409351
      px      :     1.062891
      py      :     1.061794
      dz2     :     0.011714  d :     0.055212
      dxz     :     0.021739
      dyz     :     0.021753
      dx2y2   :     0.000003
      dxy     :     0.000003
      f0      :     0.000621  f :     0.002963
      f+1     :     0.001169
      f-1     :     0.001171
      f+2     :     0.000001
      f-2     :     0.000001
      f+3     :    -0.000000
      f-3     :    -0.000000
 12 C s       :     3.149244  s :     3.149244
      pz      :     0.792288  p :     2.949722
      px      :     1.080439
      py      :     1.076995
      dz2     :     0.017962  d :     0.061574
      dxz     :     0.010035
      dyz     :     0.012064
      dx2y2   :     0.010339
      dxy     :     0.011174
      f0      :     0.001685  f :     0.003466
      f+1     :     0.000214
      f-1     :     0.000216
      f+2     :     0.000061
      f-2     :     0.000074
      f+3     :     0.000517
      f-3     :     0.000700
 13 H s       :     0.819478  s :     0.819478
      pz      :     0.005322  p :     0.022396
      px      :     0.004127
      py      :     0.012947
 14 H s       :     0.822744  s :     0.822744
      pz      :     0.004877  p :     0.022443
      px      :     0.008622
      py      :     0.008944
 15 H s       :     0.818524  s :     0.818524
      pz      :     0.004438  p :     0.022449
      px      :     0.013321
      py      :     0.004691
 16 C s       :     3.235349  s :     3.235349
      pz      :     0.970542  p :     2.737257
      px      :     0.882609
      py      :     0.884106
      dz2     :     0.026597  d :     0.114010
      dxz     :     0.043066
      dyz     :     0.043336
      dx2y2   :     0.000393
      dxy     :     0.000618
      f0      :     0.004191  f :     0.017329
      f+1     :     0.006461
      f-1     :     0.006452
      f+2     :     0.000106
      f-2     :     0.000118
      f+3     :     0.000000
      f-3     :     0.000001
 17 N s       :     3.714038  s :     3.714038
      pz      :     1.288022  p :     3.432081
      px      :     1.072754
      py      :     1.071305
      dz2     :     0.011808  d :     0.054921
      dxz     :     0.021488
      dyz     :     0.021395
      dx2y2   :     0.000118
      dxy     :     0.000113
      f0      :     0.000641  f :     0.002969
      f+1     :     0.001154
      f-1     :     0.001143
      f+2     :     0.000016
      f-2     :     0.000015
      f+3     :     0.000000
      f-3     :     0.000000


                     *******************************
                     * LOEWDIN POPULATION ANALYSIS *
                     *******************************

----------------------
LOEWDIN ATOMIC CHARGES
----------------------
   0 C :   -0.245562
   1 H :    0.145782
   2 H :    0.143656
   3 H :    0.140520
   4 C :   -0.200717
   5 N :    0.016328
   6 C :   -0.246096
   7 H :    0.145119
   8 H :    0.141207
   9 H :    0.142812
  10 C :   -0.201435
  11 N :    0.018385
  12 C :   -0.243624
  13 H :    0.145519
  14 H :    0.143020
  15 H :    0.146017
  16 C :   -0.198031
  17 N :    0.007103

-------------------------------
LOEWDIN REDUCED ORBITAL CHARGES
-------------------------------
  0 C s       :     2.813680  s :     2.813680
      pz      :     1.026438  p :     3.143234
      px      :     1.056383
      py      :     1.060412
      dz2     :     0.077481  d :     0.263167
      dxz     :     0.060632
      dyz     :     0.063231
      dx2y2   :     0.028299
      dxy     :     0.033524
      f0      :     0.007338  f :     0.025482
      f+1     :     0.005322
      f-1     :     0.005079
      f+2     :     0.002467
      f-2     :     0.001990
      f+3     :     0.000677
      f-3     :     0.002608
  1 H s       :     0.793311  s :     0.793311
      pz      :     0.012018  p :     0.060907
      px      :     0.026956
      py      :     0.021933
  2 H s       :     0.795416  s :     0.795416
      pz      :     0.013286  p :     0.060928
      px      :     0.012872
      py      :     0.034770
  3 H s       :     0.799103  s :     0.799103
      pz      :     0.012887  p :     0.060378
      px      :     0.032052
      py      :     0.015438
  4 C s       :     2.838302  s :     2.838302
      pz      :     1.191103  p :     2.855437
      px      :     0.831834
      py      :     0.832500
      dz2     :     0.154502  d :     0.448263
      dxz     :     0.146523
      dyz     :     0.146135
      dx2y2   :     0.000127
      dxy     :     0.000977
      f0      :     0.023065  f :     0.058715
      f+1     :     0.017710
      f-1     :     0.017684
      f+2     :     0.000075
      f-2     :     0.000180
      f+3     :     0.000000
      f-3     :     0.000001
  5 N s       :     3.314780  s :     3.314780
      pz      :     1.494427  p :     3.542710
      px      :     1.024902
      py      :     1.023381
      dz2     :     0.045881  d :     0.111793
      dxz     :     0.032883
      dyz     :     0.032916
      dx2y2   :     0.000060
      dxy     :     0.000052
      f0      :     0.006211  f :     0.014389
      f+1     :     0.004073
      f-1     :     0.004071
      f+2     :     0.000018
      f-2     :     0.000015
      f+3     :     0.000000
      f-3     :     0.000000
  6 C s       :     2.813672  s :     2.813672
      pz      :     1.027014  p :     3.143321
      px      :     1.057902
      py      :     1.058405
      dz2     :     0.077457  d :     0.263594
      dxz     :     0.061348
      dyz     :     0.062959
      dx2y2   :     0.030830
      dxy     :     0.031000
      f0      :     0.007348  f :     0.025510
      f+1     :     0.005261
      f-1     :     0.005176
      f+2     :     0.002108
      f-2     :     0.002329
      f+3     :     0.001324
      f-3     :     0.001964
  7 H s       :     0.794239  s :     0.794239
      pz      :     0.012651  p :     0.060642
      px      :     0.013241
      py      :     0.034750
  8 H s       :     0.798365  s :     0.798365
      pz      :     0.012447  p :     0.060429
      px      :     0.033670
      py      :     0.014312
  9 H s       :     0.796197  s :     0.796197
      pz      :     0.013014  p :     0.060992
      px      :     0.024431
      py      :     0.023546
 10 C s       :     2.838064  s :     2.838064
      pz      :     1.191270  p :     2.856857
      px      :     0.832718
      py      :     0.832869
      dz2     :     0.154608  d :     0.447827
      dxz     :     0.146335
      dyz     :     0.146218
      dx2y2   :     0.000378
      dxy     :     0.000288
      f0      :     0.023127  f :     0.058687
      f+1     :     0.017716
      f-1     :     0.017715
      f+2     :     0.000076
      f-2     :     0.000053
      f+3     :     0.000000
      f-3     :     0.000001
 11 N s       :     3.314982  s :     3.314982
      pz      :     1.494831  p :     3.540235
      px      :     1.023076
      py      :     1.022328
      dz2     :     0.045953  d :     0.112001
      dxz     :     0.032998
      dyz     :     0.033033
      dx2y2   :     0.000008
      dxy     :     0.000008
      f0      :     0.006225  f :     0.014398
      f+1     :     0.004082
      f-1     :     0.004084
      f+2     :     0.000003
      f-2     :     0.000003
      f+3     :     0.000000
      f-3     :     0.000000
 12 C s       :     2.814082  s :     2.814082
      pz      :     1.024398  p :     3.142659
      px      :     1.060617
      py      :     1.057643
      dz2     :     0.078015  d :     0.261491
      dxz     :     0.056577
      dyz     :     0.065002
      dx2y2   :     0.029514
      dxy     :     0.032383
      f0      :     0.007355  f :     0.025392
      f+1     :     0.005467
      f-1     :     0.004833
      f+2     :     0.002237
      f-2     :     0.002200
      f+3     :     0.001405
      f-3     :     0.001896
 13 H s       :     0.793747  s :     0.793747
      pz      :     0.013615  p :     0.060733
      px      :     0.013252
      py      :     0.033866
 14 H s       :     0.795944  s :     0.795944
      pz      :     0.012736  p :     0.061037
      px      :     0.023944
      py      :     0.024357
 15 H s       :     0.793139  s :     0.793139
      pz      :     0.011871  p :     0.060844
      px      :     0.034539
      py      :     0.014434
 16 C s       :     2.839416  s :     2.839416
      pz      :     1.191511  p :     2.849349
      px      :     0.828073
      py      :     0.829765
      dz2     :     0.153992  d :     0.450447
      dxz     :     0.146861
      dyz     :     0.147539
      dx2y2   :     0.000803
      dxy     :     0.001251
      f0      :     0.022904  f :     0.058820
      f+1     :     0.017579
      f-1     :     0.017777
      f+2     :     0.000270
      f-2     :     0.000287
      f+3     :     0.000001
      f-3     :     0.000002
 17 N s       :     3.314286  s :     3.314286
      pz      :     1.493441  p :     3.553464
      px      :     1.030026
      py      :     1.029997
      dz2     :     0.045620  d :     0.110830
      dxz     :     0.032320
      dyz     :     0.032540
      dx2y2   :     0.000179
      dxy     :     0.000172
      f0      :     0.006165  f :     0.014317
      f+1     :     0.003996
      f-1     :     0.004047
      f+2     :     0.000056
      f-2     :     0.000054
      f+3     :     0.000000
      f-3     :     0.000000


                      *****************************
                      * MAYER POPULATION ANALYSIS *
                      *****************************

  NA   - Mulliken gross atomic population
  ZA   - Total nuclear charge
  QA   - Mulliken gross atomic charge
  VA   - Mayer's total valence
  BVA  - Mayer's bonded valence
  FA   - Mayer's free valence

  ATOM       NA         ZA         QA         VA         BVA        FA
  0 C      6.1669     6.0000    -0.1669     3.8096     3.8096    -0.0000
  1 H      0.8378     1.0000     0.1622     0.9605     0.9605     0.0000
  2 H      0.8417     1.0000     0.1583     0.9625     0.9625    -0.0000
  3 H      0.8561     1.0000     0.1439     0.9621     0.9621    -0.0000
  4 C      6.1066     6.0000    -0.1066     3.9159     3.9159     0.0000
  5 N      7.1909     7.0000    -0.1909     3.0351     3.0351     0.0000
  6 C      6.1672     6.0000    -0.1672     3.8108     3.8108     0.0000
  7 H      0.8406     1.0000     0.1594     0.9622     0.9622     0.0000
  8 H      0.8530     1.0000     0.1470     0.9617     0.9617     0.0000
  9 H      0.8438     1.0000     0.1562     0.9612     0.9612    -0.0000
 10 C      6.1075     6.0000    -0.1075     3.9144     3.9144     0.0000
 11 N      7.1879     7.0000    -0.1879     3.0344     3.0344     0.0000
 12 C      6.1640     6.0000    -0.1640     3.8044     3.8044     0.0000
 13 H      0.8419     1.0000     0.1581     0.9620     0.9620    -0.0000
 14 H      0.8452     1.0000     0.1548     0.9618     0.9618    -0.0000
 15 H      0.8410     1.0000     0.1590     0.9617     0.9617     0.0000
 16 C      6.1039     6.0000    -0.1039     3.9240     3.9240    -0.0000
 17 N      7.2040     7.0000    -0.2040     3.0389     3.0389    -0.0000

  Mayer bond orders larger than 0.100000
B(  0-C ,  1-H ) :   0.9624 B(  0-C ,  2-H ) :   0.9632 B(  0-C ,  3-H ) :   0.9664 
B(  0-C ,  4-C ) :   0.9278 B(  4-C ,  5-N ) :   3.0091 B(  6-C ,  7-H ) :   0.9623 
B(  6-C ,  8-H ) :   0.9663 B(  6-C ,  9-H ) :   0.9645 B(  6-C , 10-C ) :   0.9278 
B( 10-C , 11-N ) :   3.0084 B( 12-C , 13-H ) :   0.9614 B( 12-C , 14-H ) :   0.9636 
B( 12-C , 15-H ) :   0.9621 B( 12-C , 16-C ) :   0.9284 B( 16-C , 17-N ) :   3.0135 


-------
TIMINGS
-------

Total SCF time: 0 days 0 hours 0 min 22 sec 

Total time                  ....      22.770 sec
Sum of individual times     ....      22.310 sec  ( 98.0%)

Fock matrix formation       ....      21.784 sec  ( 95.7%)
Diagonalization             ....       0.140 sec  (  0.6%)
Density matrix formation    ....       0.018 sec  (  0.1%)
Population analysis         ....       0.013 sec  (  0.1%)
Initial guess               ....       0.164 sec  (  0.7%)
Orbital Transformation      ....       0.000 sec  (  0.0%)
Orbital Orthonormalization  ....       0.000 sec  (  0.0%)
DIIS solution               ....       0.051 sec  (  0.2%)
SOSCF solution              ....       0.071 sec  (  0.3%)


           ************************************************************
           *        Program running with 6 parallel MPI-processes     *
           *              working on a common directory               *
           ************************************************************

------------------------------------------------------------------------------
                                ORCA  MP2 
------------------------------------------------------------------------------

Freezing NCore=18 chemical core electrons
MP2 will be done in the AO integral direct mode
The Q1-step will be done using symmetric double matrices
Dimension of the basis                    ...  333
Memory devoted for MP2                    ... 8000 MB   
Memory needed for all in one shot         ...  566 MB
Number of MOs that can be treated together...   55      
MP2 density construction                  ... relaxed
The MP2 gradient is requested => amplitudes will be stored on disk
Total number of MOs              ...   24
Number of MOs treated per batch  ...    4 
Number of batches necessary      ...    1 
OPERATORS   0/  0 PASS   0
-----------------------------------------------
 MP2 CORRELATION ENERGY   :     -1.526562621 Eh
-----------------------------------------------


---------------------
MP2 DENSITY FORMATION
---------------------

Completing the external part of the density      ... done
Storing the unrelaxed density                    ... done

Calculating G(D)                                 ... done
Completing the Lagrangian                        ... done
Solving the Z-vector equations                   ... 

------------------------------------------------------------------------------
                           ORCA CP-SCF CALCULATION
------------------------------------------------------------------------------

Input orbitals are from        ... 12mecn.remya.etal.2.mol0,1,10-orca.engrad-mp2.def2tzvp.frozencore.gbw
Input Perturbation             ... 12mecn.remya.etal.2.mol0,1,10-orca.engrad-mp2.def2tzvp.frozencore.pin.tmp
Wavefunction output            ... 12mecn.remya.etal.2.mol0,1,10-orca.engrad-mp2.def2tzvp.frozencore.pout.tmp
Perturbation mode              ... Real perturbation (singlet)
Solver                         ... POPLE
Max. number of iterations      ... 128
Convergence tolerance          ... 1.000e-08
Integral handling              ... Direct
Number of perturbations        ... 1
Number of operators            ... 1
Orbital ranges used for CP-SCF:
 Operator 0:  Orbitals   0... 32  to  33...332
Variables per vector in CP-SCF ... 9900
Number of vectors sought       ... 1
     CP-SCF ITERATION   0: 
     CP-SCF ITERATION   1:      0.001374148884
     CP-SCF ITERATION   2:      0.000279428442
     CP-SCF ITERATION   3:      0.000005906177
     CP-SCF ITERATION   4:      0.000000423743
     CP-SCF ITERATION   5:      0.000000088364
     CP-SCF ITERATION   6:      0.000000014957
     CP-SCF ITERATION   7:      0.000000003650
                                                 ... done
Finalizing the relaxed density                   ... done
Transforming P to the AO basis                   ... done
Storing the relaxed density                      ... done

------------------------------------
ENERGY WEIGHTED DENSITY FINALIZATION
------------------------------------

Gathering the parts of the W-matrix              ...                                                      done
Forming the Z-density                            ... done
Transforming Z to the AO basis                   ... done
Calculating G(Z)                                 ... done
Finalizing the W-matrix                          ...                                                      done
Transforming W to the AO basis and storing       ... done

                *********************************************
                * UNRELAXED MP2 DENSITY POPULATION ANALYSIS *
                *********************************************

------------------------------------------------------------------------------
                           ORCA POPULATION ANALYSIS
------------------------------------------------------------------------------
Input electron density              ... 12mecn.remya.etal.2.mol0,1,10-orca.engrad-mp2.def2tzvp.frozencore.pmp2ur
BaseName (.gbw .S,...)              ... 12mecn.remya.etal.2.mol0,1,10-orca.engrad-mp2.def2tzvp.frozencore

                    ********************************
                    * MULLIKEN POPULATION ANALYSIS *
                    ********************************

-----------------------
MULLIKEN ATOMIC CHARGES
-----------------------
   0 C :   -0.180146
   1 H :    0.164733
   2 H :    0.160861
   3 H :    0.146478
   4 C :   -0.115180
   5 N :   -0.176738
   6 C :   -0.180467
   7 H :    0.162031
   8 H :    0.149559
   9 H :    0.158745
  10 C :   -0.115968
  11 N :   -0.173917
  12 C :   -0.177206
  13 H :    0.160692
  14 H :    0.157397
  15 H :    0.161587
  16 C :   -0.112962
  17 N :   -0.189500
Sum of atomic charges:    0.0000000

--------------------------------
MULLIKEN REDUCED ORBITAL CHARGES
--------------------------------
  0 C s       :     3.147955  s :     3.147955
      pz      :     0.795002  p :     2.936911
      px      :     1.064321
      py      :     1.077588
      dz2     :     0.020386  d :     0.087940
      dxz     :     0.017220
      dyz     :     0.018007
      dx2y2   :     0.015550
      dxy     :     0.016777
      f0      :     0.002100  f :     0.007340
      f+1     :     0.000879
      f-1     :     0.000883
      f+2     :     0.000616
      f-2     :     0.000598
      f+3     :     0.000809
      f-3     :     0.001456
  1 H s       :     0.810060  s :     0.810060
      pz      :     0.005497  p :     0.025207
      px      :     0.010917
      py      :     0.008793
  2 H s       :     0.813906  s :     0.813906
      pz      :     0.006127  p :     0.025233
      px      :     0.005006
      py      :     0.014101
  3 H s       :     0.828390  s :     0.828390
      pz      :     0.005957  p :     0.025132
      px      :     0.013086
      py      :     0.006089
  4 C s       :     3.231960  s :     3.231960
      pz      :     0.956175  p :     2.733517
      px      :     0.888410
      py      :     0.888933
      dz2     :     0.029322  d :     0.129370
      dxz     :     0.045366
      dyz     :     0.044999
      dx2y2   :     0.004638
      dxy     :     0.005045
      f0      :     0.004606  f :     0.020333
      f+1     :     0.006989
      f-1     :     0.007001
      f+2     :     0.000593
      f-2     :     0.000631
      f+3     :     0.000256
      f-3     :     0.000257
  5 N s       :     3.706360  s :     3.706360
      pz      :     1.272917  p :     3.387693
      px      :     1.058181
      py      :     1.056595
      dz2     :     0.015914  d :     0.077024
      dxz     :     0.025652
      dyz     :     0.025677
      dx2y2   :     0.004892
      dxy     :     0.004888
      f0      :     0.001052  f :     0.005661
      f+1     :     0.001608
      f-1     :     0.001610
      f+2     :     0.000419
      f-2     :     0.000419
      f+3     :     0.000277
      f-3     :     0.000277
  6 C s       :     3.147796  s :     3.147796
      pz      :     0.795793  p :     2.937222
      px      :     1.065606
      py      :     1.075823
      dz2     :     0.020388  d :     0.088107
      dxz     :     0.017393
      dyz     :     0.018011
      dx2y2   :     0.016123
      dxy     :     0.016192
      f0      :     0.002112  f :     0.007342
      f+1     :     0.000873
      f-1     :     0.000881
      f+2     :     0.000593
      f-2     :     0.000616
      f+3     :     0.001028
      f-3     :     0.001239
  7 H s       :     0.812796  s :     0.812796
      pz      :     0.005817  p :     0.025173
      px      :     0.005169
      py      :     0.014187
  8 H s       :     0.825295  s :     0.825295
      pz      :     0.005740  p :     0.025146
      px      :     0.013776
      py      :     0.005629
  9 H s       :     0.816036  s :     0.816036
      pz      :     0.005992  p :     0.025219
      px      :     0.009766
      py      :     0.009460
 10 C s       :     3.231267  s :     3.231267
      pz      :     0.955047  p :     2.735096
      px      :     0.890064
      py      :     0.889985
      dz2     :     0.029350  d :     0.129264
      dxz     :     0.045281
      dyz     :     0.045060
      dx2y2   :     0.004803
      dxy     :     0.004770
      f0      :     0.004592  f :     0.020340
      f+1     :     0.007025
      f-1     :     0.007033
      f+2     :     0.000592
      f-2     :     0.000586
      f+3     :     0.000256
      f-3     :     0.000256
 11 N s       :     3.707590  s :     3.707590
      pz      :     1.272363  p :     3.383618
      px      :     1.056151
      py      :     1.055104
      dz2     :     0.015883  d :     0.077050
      dxz     :     0.025727
      dyz     :     0.025737
      dx2y2   :     0.004851
      dxy     :     0.004851
      f0      :     0.001047  f :     0.005658
      f+1     :     0.001614
      f-1     :     0.001615
      f+2     :     0.000415
      f-2     :     0.000415
      f+3     :     0.000276
      f-3     :     0.000276
 12 C s       :     3.147611  s :     3.147611
      pz      :     0.791123  p :     2.935167
      px      :     1.073707
      py      :     1.070337
      dz2     :     0.020462  d :     0.087098
      dxz     :     0.016152
      dyz     :     0.018059
      dx2y2   :     0.015815
      dxy     :     0.016610
      f0      :     0.002087  f :     0.007330
      f+1     :     0.000873
      f-1     :     0.000886
      f+2     :     0.000601
      f-2     :     0.000616
      f+3     :     0.001051
      f-3     :     0.001216
 13 H s       :     0.814112  s :     0.814112
      pz      :     0.006296  p :     0.025195
      px      :     0.005157
      py      :     0.013742
 14 H s       :     0.817342  s :     0.817342
      pz      :     0.005871  p :     0.025262
      px      :     0.009540
      py      :     0.009850
 15 H s       :     0.813158  s :     0.813158
      pz      :     0.005442  p :     0.025255
      px      :     0.014108
      py      :     0.005705
 16 C s       :     3.234733  s :     3.234733
      pz      :     0.961708  p :     2.728320
      px      :     0.882611
      py      :     0.884001
      dz2     :     0.029071  d :     0.129615
      dxz     :     0.045172
      dyz     :     0.045443
      dx2y2   :     0.004854
      dxy     :     0.005074
      f0      :     0.004654  f :     0.020294
      f+1     :     0.006904
      f-1     :     0.006896
      f+2     :     0.000657
      f-2     :     0.000669
      f+3     :     0.000257
      f-3     :     0.000257
 17 N s       :     3.701311  s :     3.701311
      pz      :     1.275755  p :     3.405590
      px      :     1.065600
      py      :     1.064234
      dz2     :     0.016002  d :     0.076927
      dxz     :     0.025525
      dyz     :     0.025429
      dx2y2   :     0.004988
      dxy     :     0.004983
      f0      :     0.001068  f :     0.005672
      f+1     :     0.001600
      f-1     :     0.001588
      f+2     :     0.000430
      f-2     :     0.000430
      f+3     :     0.000278
      f-3     :     0.000278


                     *******************************
                     * LOEWDIN POPULATION ANALYSIS *
                     *******************************

----------------------
LOEWDIN ATOMIC CHARGES
----------------------
   0 C :   -0.253655
   1 H :    0.147454
   2 H :    0.145342
   3 H :    0.142146
   4 C :   -0.205800
   5 N :    0.024520
   6 C :   -0.254201
   7 H :    0.146798
   8 H :    0.142834
   9 H :    0.144482
  10 C :   -0.206465
  11 N :    0.026541
  12 C :   -0.251688
  13 H :    0.147202
  14 H :    0.144696
  15 H :    0.147683
  16 C :   -0.203327
  17 N :    0.015438

-------------------------------
LOEWDIN REDUCED ORBITAL CHARGES
-------------------------------
  0 C s       :     2.811877  s :     2.811877
      pz      :     1.017924  p :     3.118778
      px      :     1.048427
      py      :     1.052427
      dz2     :     0.082685  d :     0.291495
      dxz     :     0.066479
      dyz     :     0.069080
      dx2y2   :     0.034013
      dxy     :     0.039238
      f0      :     0.008457  f :     0.031505
      f+1     :     0.006385
      f-1     :     0.006139
      f+2     :     0.003144
      f-2     :     0.002660
      f+3     :     0.001340
      f-3     :     0.003381
  1 H s       :     0.786914  s :     0.786914
      pz      :     0.013390  p :     0.065632
      px      :     0.028730
      py      :     0.023512
  2 H s       :     0.788999  s :     0.788999
      pz      :     0.014718  p :     0.065659
      px      :     0.014082
      py      :     0.036859
  3 H s       :     0.792663  s :     0.792663
      pz      :     0.014319  p :     0.065192
      px      :     0.034098
      py      :     0.016775
  4 C s       :     2.835039  s :     2.835039
      pz      :     1.178576  p :     2.836503
      px      :     0.828664
      py      :     0.829263
      dz2     :     0.161833  d :     0.467823
      dxz     :     0.148139
      dyz     :     0.147776
      dx2y2   :     0.004624
      dxy     :     0.005450
      f0      :     0.024679  f :     0.066436
      f+1     :     0.019832
      f-1     :     0.019810
      f+2     :     0.000746
      f-2     :     0.000854
      f+3     :     0.000257
      f-3     :     0.000258
  5 N s       :     3.306934  s :     3.306934
      pz      :     1.478532  p :     3.508464
      px      :     1.015692
      py      :     1.014240
      dz2     :     0.052702  d :     0.141271
      dxz     :     0.039434
      dyz     :     0.039458
      dx2y2   :     0.004842
      dxy     :     0.004835
      f0      :     0.007281  f :     0.018811
      f+1     :     0.005038
      f-1     :     0.005035
      f+2     :     0.000453
      f-2     :     0.000451
      f+3     :     0.000277
      f-3     :     0.000277
  6 C s       :     2.811869  s :     2.811869
      pz      :     1.018493  p :     3.118881
      px      :     1.049938
      py      :     1.050450
      dz2     :     0.082664  d :     0.291916
      dxz     :     0.067192
      dyz     :     0.068809
      dx2y2   :     0.036540
      dxy     :     0.036712
      f0      :     0.008467  f :     0.031534
      f+1     :     0.006322
      f-1     :     0.006240
      f+2     :     0.002776
      f-2     :     0.003005
      f+3     :     0.002024
      f-3     :     0.002700
  7 H s       :     0.787837  s :     0.787837
      pz      :     0.014056  p :     0.065365
      px      :     0.014471
      py      :     0.036838
  8 H s       :     0.791930  s :     0.791930
      pz      :     0.013855  p :     0.065235
      px      :     0.035777
      py      :     0.015603
  9 H s       :     0.789771  s :     0.789771
      pz      :     0.014438  p :     0.065747
      px      :     0.026106
      py      :     0.025202
 10 C s       :     2.834808  s :     2.834808
      pz      :     1.178725  p :     2.837809
      px      :     0.829479
      py      :     0.829604
      dz2     :     0.161971  d :     0.467435
      dxz     :     0.147960
      dyz     :     0.147848
      dx2y2   :     0.004871
      dxy     :     0.004784
      f0      :     0.024735  f :     0.066413
      f+1     :     0.019849
      f-1     :     0.019850
      f+2     :     0.000743
      f-2     :     0.000721
      f+3     :     0.000257
      f-3     :     0.000257
 11 N s       :     3.307125  s :     3.307125
      pz      :     1.478921  p :     3.506080
      px      :     1.013938
      py      :     1.013221
      dz2     :     0.052770  d :     0.141436
      dxz     :     0.039536
      dyz     :     0.039565
      dx2y2   :     0.004783
      dxy     :     0.004783
      f0      :     0.007295  f :     0.018817
      f+1     :     0.005047
      f-1     :     0.005049
      f+2     :     0.000437
      f-2     :     0.000437
      f+3     :     0.000276
      f-3     :     0.000276
 12 C s       :     2.812270  s :     2.812270
      pz      :     1.015912  p :     3.118187
      px      :     1.052606
      py      :     1.049670
      dz2     :     0.083188  d :     0.289818
      dxz     :     0.062441
      dyz     :     0.070860
      dx2y2   :     0.035231
      dxy     :     0.038099
      f0      :     0.008471  f :     0.031413
      f+1     :     0.006529
      f-1     :     0.005890
      f+2     :     0.002910
      f-2     :     0.002875
      f+3     :     0.002109
      f-3     :     0.002628
 13 H s       :     0.787354  s :     0.787354
      pz      :     0.015059  p :     0.065443
      px      :     0.014478
      py      :     0.035907
 14 H s       :     0.789525  s :     0.789525
      pz      :     0.014141  p :     0.065780
      px      :     0.025597
      py      :     0.026042
 15 H s       :     0.786748  s :     0.786748
      pz      :     0.013233  p :     0.065569
      px      :     0.036622
      py      :     0.015714
 16 C s       :     2.836116  s :     2.836116
      pz      :     1.179021  p :     2.830935
      px      :     0.825155
      py      :     0.826759
      dz2     :     0.161247  d :     0.469757
      dxz     :     0.148423
      dyz     :     0.149136
      dx2y2   :     0.005260
      dxy     :     0.005692
      f0      :     0.024529  f :     0.066519
      f+1     :     0.019676
      f-1     :     0.019872
      f+2     :     0.000951
      f-2     :     0.000973
      f+3     :     0.000259
      f-3     :     0.000260
 17 N s       :     3.306485  s :     3.306485
      pz      :     1.477599  p :     3.518863
      px      :     1.020623
      py      :     1.020641
      dz2     :     0.052458  d :     0.140468
      dxz     :     0.038916
      dyz     :     0.039127
      dx2y2   :     0.004987
      dxy     :     0.004980
      f0      :     0.007232  f :     0.018746
      f+1     :     0.004958
      f-1     :     0.005010
      f+2     :     0.000496
      f-2     :     0.000493
      f+3     :     0.000279
      f-3     :     0.000279


                      *****************************
                      * MAYER POPULATION ANALYSIS *
                      *****************************

  NA   - Mulliken gross atomic population
  ZA   - Total nuclear charge
  QA   - Mulliken gross atomic charge
  VA   - Mayer's total valence
  BVA  - Mayer's bonded valence
  FA   - Mayer's free valence

  ATOM       NA         ZA         QA         VA         BVA        FA
  0 C      6.1801     6.0000    -0.1801     3.9272     3.6441     0.2831
  1 H      0.8353     1.0000     0.1647     0.9678     0.9205     0.0473
  2 H      0.8391     1.0000     0.1609     0.9698     0.9225     0.0473
  3 H      0.8535     1.0000     0.1465     0.9701     0.9217     0.0484
  4 C      6.1152     6.0000    -0.1152     4.0177     3.5784     0.4392
  5 N      7.1767     7.0000    -0.1767     3.2299     2.7440     0.4859
  6 C      6.1805     6.0000    -0.1805     3.9284     3.6452     0.2832
  7 H      0.8380     1.0000     0.1620     0.9696     0.9223     0.0473
  8 H      0.8504     1.0000     0.1496     0.9696     0.9213     0.0483
  9 H      0.8413     1.0000     0.1587     0.9687     0.9212     0.0475
 10 C      6.1160     6.0000    -0.1160     4.0163     3.5767     0.4396
 11 N      7.1739     7.0000    -0.1739     3.2289     2.7430     0.4858
 12 C      6.1772     6.0000    -0.1772     3.9219     3.6394     0.2825
 13 H      0.8393     1.0000     0.1607     0.9694     0.9220     0.0474
 14 H      0.8426     1.0000     0.1574     0.9693     0.9218     0.0476
 15 H      0.8384     1.0000     0.1616     0.9692     0.9217     0.0475
 16 C      6.1130     6.0000    -0.1130     4.0252     3.5876     0.4377
 17 N      7.1895     7.0000    -0.1895     3.2353     2.7491     0.4861

  Mayer bond orders larger than 0.100000
B(  0-C ,  1-H ) :   0.9251 B(  0-C ,  2-H ) :   0.9259 B(  0-C ,  3-H ) :   0.9286 
B(  0-C ,  4-C ) :   0.8763 B(  4-C ,  5-N ) :   2.7250 B(  6-C ,  7-H ) :   0.9250 
B(  6-C ,  8-H ) :   0.9285 B(  6-C ,  9-H ) :   0.9271 B(  6-C , 10-C ) :   0.8763 
B( 10-C , 11-N ) :   2.7239 B( 12-C , 13-H ) :   0.9242 B( 12-C , 14-H ) :   0.9262 
B( 12-C , 15-H ) :   0.9247 B( 12-C , 16-C ) :   0.8769 B( 16-C , 17-N ) :   2.7305 



                *******************************************
                * RELAXED MP2 DENSITY POPULATION ANALYSIS *
                *******************************************

------------------------------------------------------------------------------
                           ORCA POPULATION ANALYSIS
------------------------------------------------------------------------------
Input electron density              ... 12mecn.remya.etal.2.mol0,1,10-orca.engrad-mp2.def2tzvp.frozencore.pmp2re
BaseName (.gbw .S,...)              ... 12mecn.remya.etal.2.mol0,1,10-orca.engrad-mp2.def2tzvp.frozencore

                    ********************************
                    * MULLIKEN POPULATION ANALYSIS *
                    ********************************

-----------------------
MULLIKEN ATOMIC CHARGES
-----------------------
   0 C :   -0.281049
   1 H :    0.178112
   2 H :    0.174268
   3 H :    0.161192
   4 C :   -0.144239
   5 N :   -0.088273
   6 C :   -0.281488
   7 H :    0.175116
   8 H :    0.164100
   9 H :    0.172710
  10 C :   -0.144140
  11 N :   -0.086315
  12 C :   -0.277390
  13 H :    0.173925
  14 H :    0.171265
  15 H :    0.175136
  16 C :   -0.145645
  17 N :   -0.097284
Sum of atomic charges:    0.0000000

--------------------------------
MULLIKEN REDUCED ORBITAL CHARGES
--------------------------------
  0 C s       :     3.184253  s :     3.184253
      pz      :     0.841449  p :     3.012146
      px      :     1.078940
      py      :     1.091756
      dz2     :     0.016130  d :     0.077566
      dxz     :     0.017432
      dyz     :     0.018041
      dx2y2   :     0.012498
      dxy     :     0.013465
      f0      :     0.001865  f :     0.007084
      f+1     :     0.000939
      f-1     :     0.000944
      f+2     :     0.000602
      f-2     :     0.000588
      f+3     :     0.000785
      f-3     :     0.001362
  1 H s       :     0.797829  s :     0.797829
      pz      :     0.005596  p :     0.024059
      px      :     0.010116
      py      :     0.008347
  2 H s       :     0.801646  s :     0.801646
      pz      :     0.006108  p :     0.024086
      px      :     0.005182
      py      :     0.012796
  3 H s       :     0.814764  s :     0.814764
      pz      :     0.005994  p :     0.024044
      px      :     0.011958
      py      :     0.006092
  4 C s       :     3.210800  s :     3.210800
      pz      :     0.990528  p :     2.809786
      px      :     0.910031
      py      :     0.909227
      dz2     :     0.024539  d :     0.104666
      dxz     :     0.035412
      dyz     :     0.035113
      dx2y2   :     0.004612
      dxy     :     0.004989
      f0      :     0.004421  f :     0.018987
      f+1     :     0.006415
      f-1     :     0.006428
      f+2     :     0.000588
      f-2     :     0.000623
      f+3     :     0.000256
      f-3     :     0.000256
  5 N s       :     3.648494  s :     3.648494
      pz      :     1.262761  p :     3.366574
      px      :     1.052168
      py      :     1.051645
      dz2     :     0.014905  d :     0.068017
      dxz     :     0.021673
      dyz     :     0.021673
      dx2y2   :     0.004885
      dxy     :     0.004881
      f0      :     0.000935  f :     0.005187
      f+1     :     0.001431
      f-1     :     0.001432
      f+2     :     0.000418
      f-2     :     0.000418
      f+3     :     0.000277
      f-3     :     0.000277
[...]
      f+1     :     0.006449
      f-1     :     0.006456
      f+2     :     0.000587
      f-2     :     0.000582
      f+3     :     0.000256
      f-3     :     0.000256
 11 N s       :     3.650011  s :     3.650011
      pz      :     1.262024  p :     3.363093
      px      :     1.050861
      py      :     1.050208
      dz2     :     0.014886  d :     0.068028
      dxz     :     0.021721
      dyz     :     0.021719
      dx2y2   :     0.004851
      dxy     :     0.004851
      f0      :     0.000930  f :     0.005184
      f+1     :     0.001436
      f-1     :     0.001436
      f+2     :     0.000415
      f-2     :     0.000415
      f+3     :     0.000276
      f-3     :     0.000276
 12 C s       :     3.183718  s :     3.183718
      pz      :     0.837773  p :     3.009767
      px      :     1.087451
      py      :     1.084543
      dz2     :     0.016219  d :     0.076829
      dxz     :     0.016531
      dyz     :     0.017982
      dx2y2   :     0.012744
      dxy     :     0.013353
      f0      :     0.001854  f :     0.007076
      f+1     :     0.000931
      f-1     :     0.000945
      f+2     :     0.000591
      f-2     :     0.000606
      f+3     :     0.001000
      f-3     :     0.001148
 13 H s       :     0.802026  s :     0.802026
      pz      :     0.006256  p :     0.024049
      px      :     0.005304
      py      :     0.012489
 14 H s       :     0.804617  s :     0.804617
      pz      :     0.005896  p :     0.024118
      px      :     0.008998
      py      :     0.009225
 15 H s       :     0.800759  s :     0.800759
      pz      :     0.005550  p :     0.024105
      px      :     0.012799
      py      :     0.005757
 16 C s       :     3.213713  s :     3.213713
      pz      :     0.996004  p :     2.807988
      px      :     0.905899
      py      :     0.906085
      dz2     :     0.024261  d :     0.104994
      dxz     :     0.035323
      dyz     :     0.035644
      dx2y2   :     0.004784
      dxy     :     0.004981
      f0      :     0.004463  f :     0.018950
      f+1     :     0.006336
      f-1     :     0.006335
      f+2     :     0.000646
      f-2     :     0.000656
      f+3     :     0.000257
      f-3     :     0.000257
 17 N s       :     3.641888  s :     3.641888
      pz      :     1.266518  p :     3.382220
      px      :     1.057992
      py      :     1.057711
      dz2     :     0.014960  d :     0.067976
      dxz     :     0.021588
      dyz     :     0.021500
      dx2y2   :     0.004966
      dxy     :     0.004962
      f0      :     0.000949  f :     0.005200
      f+1     :     0.001426
      f-1     :     0.001413
      f+2     :     0.000428
      f-2     :     0.000427
      f+3     :     0.000278
      f-3     :     0.000278


                     *******************************
                     * LOEWDIN POPULATION ANALYSIS *
                     *******************************

----------------------
LOEWDIN ATOMIC CHARGES
----------------------
   0 C :   -0.284436
   1 H :    0.154106
   2 H :    0.152047
   3 H :    0.149197
   4 C :   -0.220406
   5 N :    0.049502
   6 C :   -0.284977
   7 H :    0.153492
   8 H :    0.149837
   9 H :    0.151255
  10 C :   -0.220791
  11 N :    0.051172
  12 C :   -0.282476
  13 H :    0.153840
  14 H :    0.151441
  15 H :    0.154357
  16 C :   -0.219034
  17 N :    0.041876

-------------------------------
LOEWDIN REDUCED ORBITAL CHARGES
-------------------------------
  0 C s       :     2.816797  s :     2.816797
      pz      :     1.035863  p :     3.155492
      px      :     1.057888
      py      :     1.061740
      dz2     :     0.075133  d :     0.280433
      dxz     :     0.068071
      dyz     :     0.070462
      dx2y2   :     0.030923
      dxy     :     0.035843
      f0      :     0.007964  f :     0.031714
      f+1     :     0.006811
      f-1     :     0.006557
      f+2     :     0.003127
      f-2     :     0.002642
      f+3     :     0.001318
      f-3     :     0.003295
  1 H s       :     0.779980  s :     0.779980
      pz      :     0.013956  p :     0.065913
      px      :     0.028452
      py      :     0.023505
  2 H s       :     0.781995  s :     0.781995
      pz      :     0.015193  p :     0.065958
      px      :     0.014539
      py      :     0.036227
  3 H s       :     0.785219  s :     0.785219
      pz      :     0.014842  p :     0.065584
      px      :     0.033628
      py      :     0.017114
  4 C s       :     2.840615  s :     2.840615
      pz      :     1.169844  p :     2.861488
      px      :     0.845884
      py      :     0.845759
      dz2     :     0.164008  d :     0.451846
      dxz     :     0.139085
      dyz     :     0.138814
      dx2y2   :     0.004588
      dxy     :     0.005350
      f0      :     0.025662  f :     0.066458
      f+1     :     0.019358
      f-1     :     0.019355
      f+2     :     0.000742
      f-2     :     0.000826
      f+3     :     0.000257
      f-3     :     0.000258
  5 N s       :     3.307105  s :     3.307105
      pz      :     1.465537  p :     3.487173
      px      :     1.011160
      py      :     1.010476
      dz2     :     0.053372  d :     0.137046
      dxz     :     0.037028
      dyz     :     0.036978
      dx2y2   :     0.004837
      dxy     :     0.004832
      f0      :     0.007379  f :     0.019174
      f+1     :     0.005174
      f-1     :     0.005163
      f+2     :     0.000454
      f-2     :     0.000451
      f+3     :     0.000277
      f-3     :     0.000277
  6 C s       :     2.816790  s :     2.816790
      pz      :     1.036379  p :     3.155614
      px      :     1.059584
      py      :     1.059651
      dz2     :     0.075086  d :     0.280830
      dxz     :     0.068732
      dyz     :     0.070274
      dx2y2   :     0.033289
      dxy     :     0.033449
      f0      :     0.007968  f :     0.031743
      f+1     :     0.006752
      f-1     :     0.006667
      f+2     :     0.002757
      f-2     :     0.002985
      f+3     :     0.001980
      f-3     :     0.002635
  7 H s       :     0.780856  s :     0.780856
      pz      :     0.014576  p :     0.065653
      px      :     0.014909
      py      :     0.036168
  8 H s       :     0.784549  s :     0.784549
      pz      :     0.014404  p :     0.065614
      px      :     0.035222
      py      :     0.015988
  9 H s       :     0.782673  s :     0.782673
      pz      :     0.014941  p :     0.066071
      px      :     0.026010
      py      :     0.025120
 10 C s       :     2.840435  s :     2.840435
      pz      :     1.170011  p :     2.862370
      px      :     0.846262
      py      :     0.846096
      dz2     :     0.164202  d :     0.451536
      dxz     :     0.138965
      dyz     :     0.138826
      dx2y2   :     0.004811
      dxy     :     0.004731
      f0      :     0.025728  f :     0.066451
      f+1     :     0.019385
      f-1     :     0.019388
      f+2     :     0.000728
      f-2     :     0.000709
      f+3     :     0.000257
      f-3     :     0.000257
 11 N s       :     3.307294  s :     3.307294
      pz      :     1.465835  p :     3.485194
      px      :     1.009905
      py      :     1.009453
      dz2     :     0.053464  d :     0.137164
      dxz     :     0.037067
      dyz     :     0.037067
      dx2y2   :     0.004783
      dxy     :     0.004783
      f0      :     0.007394  f :     0.019177
      f+1     :     0.005179
      f-1     :     0.005178
      f+2     :     0.000437
      f-2     :     0.000437
      f+3     :     0.000276
      f-3     :     0.000276
 12 C s       :     2.817160  s :     2.817160
      pz      :     1.034133  p :     3.154783
      px      :     1.061892
      py      :     1.058757
      dz2     :     0.075579  d :     0.278904
      dxz     :     0.064275
      dyz     :     0.072141
      dx2y2   :     0.032124
      dxy     :     0.034785
      f0      :     0.007978  f :     0.031630
      f+1     :     0.006959
      f-1     :     0.006302
      f+2     :     0.002898
      f-2     :     0.002862
      f+3     :     0.002064
      f-3     :     0.002567
 13 H s       :     0.780446  s :     0.780446
      pz      :     0.015507  p :     0.065714
      px      :     0.014917
      py      :     0.035290
 14 H s       :     0.782465  s :     0.782465
      pz      :     0.014654  p :     0.066094
      px      :     0.025536
      py      :     0.025903
 15 H s       :     0.779788  s :     0.779788
      pz      :     0.013806  p :     0.065855
      px      :     0.035973
      py      :     0.016075
 16 C s       :     2.841483  s :     2.841483
      pz      :     1.170109  p :     2.857655
      px      :     0.843377
      py      :     0.844169
      dz2     :     0.163234  d :     0.453420
      dxz     :     0.139321
      dyz     :     0.140120
      dx2y2   :     0.005172
      dxy     :     0.005571
      f0      :     0.025499  f :     0.066477
      f+1     :     0.019182
      f-1     :     0.019394
      f+2     :     0.000937
      f-2     :     0.000947
      f+3     :     0.000259
      f-3     :     0.000259
 17 N s       :     3.306639  s :     3.306639
      pz      :     1.464968  p :     3.495910
      px      :     1.015099
      py      :     1.015842
      dz2     :     0.053049  d :     0.136447
      dxz     :     0.036644
      dyz     :     0.036812
      dx2y2   :     0.004973
      dxy     :     0.004968
      f0      :     0.007328  f :     0.019129
      f+1     :     0.005104
      f-1     :     0.005147
      f+2     :     0.000497
      f-2     :     0.000495
      f+3     :     0.000279
      f-3     :     0.000279


                      *****************************
                      * MAYER POPULATION ANALYSIS *
                      *****************************

  NA   - Mulliken gross atomic population
  ZA   - Total nuclear charge
  QA   - Mulliken gross atomic charge
  VA   - Mayer's total valence
  BVA  - Mayer's bonded valence
  FA   - Mayer's free valence

  ATOM       NA         ZA         QA         VA         BVA        FA
  0 C      6.2810     6.0000    -0.2810     3.9310     3.6490     0.2820
  1 H      0.8219     1.0000     0.1781     0.9617     0.9150     0.0467
  2 H      0.8257     1.0000     0.1743     0.9637     0.9170     0.0467
  3 H      0.8388     1.0000     0.1612     0.9645     0.9167     0.0478
  4 C      6.1442     6.0000    -0.1442     4.1403     3.7119     0.4283
  5 N      7.0883     7.0000    -0.0883     3.3429     2.8694     0.4735
  6 C      6.2815     6.0000    -0.2815     3.9321     3.6499     0.2821
  7 H      0.8249     1.0000     0.1751     0.9637     0.9170     0.0467
  8 H      0.8359     1.0000     0.1641     0.9639     0.9162     0.0477
  9 H      0.8273     1.0000     0.1727     0.9625     0.9156     0.0469
 10 C      6.1441     6.0000    -0.1441     4.1384     3.7097     0.4287
 11 N      7.0863     7.0000    -0.0863     3.3416     2.8681     0.4735
 12 C      6.2774     6.0000    -0.2774     3.9266     3.6452     0.2814
 13 H      0.8261     1.0000     0.1739     0.9636     0.9168     0.0468
 14 H      0.8287     1.0000     0.1713     0.9632     0.9163     0.0470
 15 H      0.8249     1.0000     0.1751     0.9630     0.9161     0.0469
 16 C      6.1456     6.0000    -0.1456     4.1502     3.7234     0.4269
 17 N      7.0973     7.0000    -0.0973     3.3502     2.8765     0.4737

  Mayer bond orders larger than 0.100000
B(  0-C ,  1-H ) :   0.9159 B(  0-C ,  2-H ) :   0.9165 B(  0-C ,  3-H ) :   0.9192 
B(  0-C ,  4-C ) :   0.9005 B(  4-C ,  5-N ) :   2.8328 B(  6-C ,  7-H ) :   0.9158 
B(  6-C ,  8-H ) :   0.9191 B(  6-C ,  9-H ) :   0.9178 B(  6-C , 10-C ) :   0.9004 
B( 10-C , 11-N ) :   2.8314 B( 12-C , 13-H ) :   0.9151 B( 12-C , 14-H ) :   0.9170 
B( 12-C , 15-H ) :   0.9155 B( 12-C , 16-C ) :   0.9017 B( 16-C , 17-N ) :   2.8402 



----------------------------------
MP2 DERIVATIVE INTEGRAL GENERATION
----------------------------------


Input Wavefunction Amplitudes       ... 12mecn.remya.etal.2.mol0,1,10-orca.engrad-mp2.def2tzvp.frozencore.mp2tsaa.tmp
Input Correlated Electron Density   ... 12mecn.remya.etal.2.mol0,1,10-orca.engrad-mp2.def2tzvp.frozencore.pmp2re
Input Energy Weighted Density       ... 12mecn.remya.etal.2.mol0,1,10-orca.engrad-mp2.def2tzvp.frozencore.wmp2.tmp
Input SCF Electron Density          ... 12mecn.remya.etal.2.mol0,1,10-orca.engrad-mp2.def2tzvp.frozencore.scfp

One-Electron Terms    ...
                        ... One-Electron Terms done
Prescreening matrices              ... done

Batch handling in the gradient evaluation:
Memory available                      ... 8000.0 MB
Memory per occupied orbital in Q2     ...   20.3 MB
Memory per occupied orbital in Q3     ...    0.1 MB
Total memory requirement per |i>      ...   20.4 MB
Max. Number of orbitals possible      ...    391
Number of orbitals treated per batch  ...     24
Number of batches to be done          ...      1
Batch   0: i=    9 ...    32

---------------------------------------
MP2 TOTAL ENERGY:     -397.449086943 Eh
---------------------------------------

The final MP2 gradient
  0:  -0.00014614  -0.00158175  -0.00688528
  1:   0.00240708   0.00166974  -0.00133705
  2:   0.00044369  -0.00231461   0.00013784
  3:  -0.00289962   0.00098127  -0.00135960
  4:   0.00000181   0.00106058   0.00629979
  5:  -0.00015761   0.00024298   0.00317261
  6:  -0.00174744   0.00099525  -0.00700013
  7:  -0.00135772   0.00399907  -0.00147553
  8:   0.00205464  -0.00299572  -0.00110301
  9:   0.00011054  -0.00234869  -0.00000225
 10:   0.00102726   0.00015504   0.00665179
 11:   0.00000554  -0.00000987   0.00293204
 12:   0.00213366  -0.00165042   0.00690862
 13:   0.00142315  -0.00399856   0.00109752
 14:  -0.00008693   0.00237389   0.00003064
 15:  -0.00224585   0.00291824   0.00138060
 16:  -0.00094067   0.00060948  -0.00624461
 17:  -0.00002537  -0.00010591  -0.00320399

-----------------------------------
NORM OF THE MP2 GRADIENT:  0.020514
-----------------------------------

-------------------------   --------------------
FINAL SINGLE POINT ENERGY      -397.449086942655
-------------------------   --------------------


                            ***************************************
                            *     ORCA property calculations      *
                            ***************************************

                                    ---------------------
                                    Active property flags
                                    ---------------------
   (+) Dipole Moment


------------------------------------------------------------------------------
                       ORCA ELECTRIC PROPERTIES CALCULATION
------------------------------------------------------------------------------

Dipole Moment Calculation                       ... on
Quadrupole Moment Calculation                   ... off
Polarizability Calculation                      ... off
GBWName                                         ... 12mecn.remya.etal.2.mol0,1,10-orca.engrad-mp2.def2tzvp.frozencore.gbw
Electron density file                           ... 12mecn.remya.etal.2.mol0,1,10-orca.engrad-mp2.def2tzvp.frozencore.scfp
The origin for moment calculation is the CENTER OF MASS  = (-0.615958, -2.494199  0.235012)

-------------
DIPOLE MOMENT
-------------
                                X             Y             Z
Electronic contribution:     -0.01653      -0.24578      -3.07441
Nuclear contribution   :      0.03583       0.37917       4.64975
                        -----------------------------------------
Total Dipole Moment    :      0.01929       0.13339       1.57534
                        -----------------------------------------
Magnitude (a.u.)       :      1.58109
Magnitude (Debye)      :      4.01882



--------------------
Rotational spectrum 
--------------------
 
Rotational constants in cm-1:     0.029341     0.008311     0.007356 
Rotational constants in MHz :   879.623787   249.144688   220.541556 

 Dipole components along the rotational axes: 
x,y,z [a.u.] :    -0.145477     0.067859     1.572924 
x,y,z [Debye]:    -0.369774     0.172483     3.998055 

 

                         *** MP2 UNRELAXED DENSITY ***

------------------------------------------------------------------------------
                       ORCA ELECTRIC PROPERTIES CALCULATION
------------------------------------------------------------------------------

Dipole Moment Calculation                       ... on
Quadrupole Moment Calculation                   ... off
Polarizability Calculation                      ... off
GBWName                                         ... 12mecn.remya.etal.2.mol0,1,10-orca.engrad-mp2.def2tzvp.frozencore.gbw
Electron density file                           ... 12mecn.remya.etal.2.mol0,1,10-orca.engrad-mp2.def2tzvp.frozencore.pmp2ur
The origin for moment calculation is the CENTER OF MASS  = (-0.615958, -2.494199  0.235012)

-------------
DIPOLE MOMENT
-------------
                                X             Y             Z
Electronic contribution:     -0.01713      -0.24856      -3.10978
Nuclear contribution   :      0.03583       0.37917       4.64975
                        -----------------------------------------
Total Dipole Moment    :      0.01870       0.13061       1.53997
                        -----------------------------------------
Magnitude (a.u.)       :      1.54561
Magnitude (Debye)      :      3.92864



--------------------
Rotational spectrum 
--------------------
 
Rotational constants in cm-1:     0.029341     0.008311     0.007356 
Rotational constants in MHz :   879.623787   249.144688   220.541556 

 Dipole components along the rotational axes: 
x,y,z [a.u.] :    -0.142341     0.066096     1.537626 
x,y,z [Debye]:    -0.361802     0.168003     3.908336 

 

                           *** MP2 RELAXED DENSITY ***

------------------------------------------------------------------------------
                       ORCA ELECTRIC PROPERTIES CALCULATION
------------------------------------------------------------------------------

Dipole Moment Calculation                       ... on
Quadrupole Moment Calculation                   ... off
Polarizability Calculation                      ... off
GBWName                                         ... 12mecn.remya.etal.2.mol0,1,10-orca.engrad-mp2.def2tzvp.frozencore.gbw
Electron density file                           ... 12mecn.remya.etal.2.mol0,1,10-orca.engrad-mp2.def2tzvp.frozencore.pmp2re
The origin for moment calculation is the CENTER OF MASS  = (-0.615958, -2.494199  0.235012)

-------------
DIPOLE MOMENT
-------------
                                X             Y             Z
Electronic contribution:     -0.01854      -0.25642      -3.20310
Nuclear contribution   :      0.03583       0.37917       4.64975
                        -----------------------------------------
Total Dipole Moment    :      0.01729       0.12275       1.44665
                        -----------------------------------------
Magnitude (a.u.)       :      1.45195
Magnitude (Debye)      :      3.69057



--------------------
Rotational spectrum 
--------------------
 
Rotational constants in cm-1:     0.029341     0.008311     0.007356 
Rotational constants in MHz :   879.623787   249.144688   220.541556 

 Dipole components along the rotational axes: 
x,y,z [a.u.] :    -0.133978     0.062000     1.444426 
x,y,z [Debye]:    -0.340544     0.157593     3.671440 

 

Timings for individual modules:

Sum of individual times         ...      120.082 sec (=   2.001 min)
GTO integral calculation        ...        1.873 sec (=   0.031 min)   1.6 %
SCF iterations                  ...       24.583 sec (=   0.410 min)  20.5 %
MP2 module                      ...       93.625 sec (=   1.560 min)  78.0 %
                             ****ORCA TERMINATED NORMALLY****
TOTAL RUN TIME: 0 days 0 hours 2 minutes 1 seconds 59 msec
