
                                 *****************
                                 * O   R   C   A *
                                 *****************

           --- An Ab Initio, DFT and Semiempirical electronic structure package ---

                  #######################################################
                  #                        -***-                        #
                  #  Department of molecular theory and spectroscopy    #
                  #              Directorship: Frank Neese              #
                  # Max Planck Institute for Chemical Energy Conversion #
                  #                  D-45470 Muelheim/Ruhr              #
                  #                       Germany                       #
                  #                                                     #
                  #                  All rights reserved                #
                  #                        -***-                        #
                  #######################################################


                         Program Version 3.0.3 - RELEASE   -


 With contributions from (in alphabetic order):
   Ute Becker             : Parallelization
   Dmytro Bykov           : SCF Hessian
   Dmitry Ganyushin       : Spin-Orbit,Spin-Spin,Magnetic field MRCI
   Andreas Hansen         : Spin unrestricted coupled pair/coupled cluster methods
   Dimitrios Liakos       : Extrapolation schemes; parallel MDCI
   Robert Izsak           : Overlap fitted RIJCOSX, COSX-SCS-MP3
   Christian Kollmar      : KDIIS, OOCD, Brueckner-CCSD(T), CCSD density
   Simone Kossmann        : Meta GGA functionals, TD-DFT gradient, OOMP2, MP2 Hessian
   Taras Petrenko         : DFT Hessian,TD-DFT gradient, ASA and ECA modules, normal mode analysis, Resonance Raman, ABS, FL, XAS/XES, NRVS
   Christoph Reimann      : Effective Core Potentials
   Michael Roemelt        : Restricted open shell CIS
   Christoph Riplinger    : Improved optimizer, TS searches, QM/MM, DLPNO-CCSD
   Barbara Sandhoefer     : DKH picture change effects
   Igor Schapiro          : Molecular dynamics
   Kantharuban Sivalingam : CASSCF convergence, NEVPT2
   Boris Wezisla          : Elementary symmetry handling
   Frank Wennmohs         : Technical directorship


 We gratefully acknowledge several colleagues who have allowed us to
 interface, adapt or use parts of their codes:
   Stefan Grimme, W. Hujo, H. Kruse, T. Risthaus : VdW corrections, initial TS optimization,
                                                   DFT functionals, gCP
   Ed Valeev                                     : LibInt (2-el integral package), F12 methods
   Garnet Chan, S. Sharma, R. Olivares           : DMRG
   Ulf Ekstrom                                   : XCFun DFT Library
   Mihaly Kallay                                 : mrcc  (arbitrary order and MRCC methods)
   Andreas Klamt, Michael Diedenhofen            : otool_cosmo (COSMO solvation model)
   Frank Weinhold                                : gennbo (NPA and NBO analysis)
   Christopher J. Cramer and Donald G. Truhlar   : smd solvation model


 Your calculation uses the libint2 library for the computation of 2-el integrals
 For citations please refer to: http://libint.valeyev.net

 This ORCA versions uses:
   CBLAS   interface :  Fast vector & matrix operations
   LAPACKE interface :  Fast linear algebra routines
   SCALAPACK package :  Parallel linear algebra routines


Your calculation utilizes the basis: ma-def2-TZVP
Cite in your paper:
        def2-TZVP: F. Weigend, R. Ahlrichs, Phys. Chem. Chem. Phys. 2005, 7, 3297.
        Minimal augmentation of diffuse functions: J. Zheng, X. Xu, D. G. Truhlar, Theor. Chem. Acc. 2011, 128, 295.

Your calculation utilizes the atom-pairwise dispersion correction
with the zero-damping scheme (D30)
Cite in your paper:
S.Grimme, J.Antony, S.Ehrlich and H.Krieg, J.Chem.Phys., 132, (2010), 154104 
   

XCFun DFT library Copyright 2009-2010 Ulf Ekstrom and contributors.
See http://admol.org/xcfun for more information. This is free soft-
ware; see the source code for copying conditions. There is ABSOLUTELY
NO WARRANTY; not even for MERCHANTABILITY or FITNESS FOR A PARTICULAR
PURPOSE. For details see the documentation. Scientific users of this 
library should cite U. Ekstrom, L. Visscher, R. Bast, A. J. Thorvald-
sen and K. Ruud; J.Chem.Theor.Comp. 2010, DOI: 10.1021/ct100117s
XCFun Version 0.99 
================================================================================
                                        WARNINGS
                       Please study these warnings very carefully!
================================================================================
Now building the actual basis set


INFO   : the flag for use of LIBINT has been found!

================================================================================
                                       INPUT FILE
================================================================================
NAME = 3_wb98x-ma-def2-TZVP-GasPhase_onB3LYP_2_waters.inp
|  1> ! wB97X-D3 MA-Def2-TZVP def2-TZVP/J RIJCOSX TightSCF Grid4 
|  2> 
|  3> %pal nprocs 1 end
|  4> 
|  5> %scf
|  6>         maxiter 400
|  7> end
|  8> 
|  9> * xyz  0  1
| 10> O  0.919606	-0.137971	-1.063021
| 11> H  1.345167	0.718229	-0.908701
| 12> H  0.064874	0.107680	-1.449962
| 13> O  -0.921796	0.097836	1.042596
| 14> H  -0.150256	-0.200849	0.528294
| 15> H  -1.110747	-0.649246	1.625272
| 16> **                         ****END OF INPUT****
================================================================================

                       ****************************
                       * Single Point Calculation *
                       ****************************

---------------------------------
CARTESIAN COORDINATES (ANGSTROEM)
---------------------------------
  O      0.919606   -0.137971   -1.063021
  H      1.345167    0.718229   -0.908701
  H      0.064874    0.107680   -1.449962
  O     -0.921796    0.097836    1.042596
  H     -0.150256   -0.200849    0.528294
  H     -1.110747   -0.649246    1.625272

----------------------------
CARTESIAN COORDINATES (A.U.)
----------------------------
  NO LB      ZA    FRAG    MASS        X           Y           Z
   0 O     8.0000    0    15.999          1.737803491110787         -0.260727404423249         -2.008818564607103
   1 H     1.0000    0     1.008          2.541997234388448          1.357256111440127         -1.717196027620375
   2 H     1.0000    0     1.008          0.122594093212007          0.203485710100640         -2.740031084592726
   3 O     8.0000    0    15.999         -1.741941991344074          0.184883246038320          1.970220908321761
   4 H     1.0000    0     1.008         -0.283942689978472         -0.379549604271949          0.998330978193794
   5 H     1.0000    0     1.008         -2.099007634074628         -1.226897133543837          3.071318973130460

--------------------------------
INTERNAL COORDINATES (ANGSTROEM)
--------------------------------
 O      0   0   0   0.000000     0.000     0.000
 H      1   0   0   0.968502     0.000     0.000
 H      1   2   0   0.969863   103.114     0.000
 O      3   1   2   2.680757    87.276   268.374
 H      4   3   1   0.974163    38.624   344.957
 H      4   3   1   0.966098   129.465   287.658

---------------------------
INTERNAL COORDINATES (A.U.)
---------------------------
 O      0   0   0   0.000000     0.000     0.000
 H      1   0   0   1.830203     0.000     0.000
 H      1   2   0   1.832776   103.114     0.000
 O      3   1   2   5.065897    87.276   268.374
 H      4   3   1   1.840901    38.624   344.957
 H      4   3   1   1.825661   129.465   287.658

---------------------
BASIS SET INFORMATION
---------------------
There are 2 groups of distinct atoms

 Group   1 Type O   : 12s7p2d1f contracted to 6s4p2d1f pattern {621111/4111/11/1}
 Group   2 Type H   : 5s1p contracted to 3s1p pattern {311/1}

Atom   0O    basis set group =>   1
Atom   1H    basis set group =>   2
Atom   2H    basis set group =>   2
Atom   3O    basis set group =>   1
Atom   4H    basis set group =>   2
Atom   5H    basis set group =>   2
-------------------------------
AUXILIARY BASIS SET INFORMATION
-------------------------------
There are 2 groups of distinct atoms

 Group   1 Type O   : 12s5p4d2f1g contracted to 6s4p3d1f1g pattern {711111/2111/211/2/1}
 Group   2 Type H   : 5s2p1d contracted to 3s1p1d pattern {311/2/1}

Atom   0O    basis set group =>   1
Atom   1H    basis set group =>   2
Atom   2H    basis set group =>   2
Atom   3O    basis set group =>   1
Atom   4H    basis set group =>   2
Atom   5H    basis set group =>   2
------------------------------------------------------------------------------
                           ORCA GTO INTEGRAL CALCULATION
                           -- RI-GTO INTEGRALS CHOSEN --
------------------------------------------------------------------------------

                         BASIS SET STATISTICS AND STARTUP INFO

Gaussian basis set:
 # of primitive gaussian shells          ...   68
 # of primitive gaussian functions       ...  132
 # of contracted shells                  ...   42
 # of contracted basis functions         ...   94
 Highest angular momentum                ...    3
 Maximum contraction depth               ...    6
Auxiliary gaussian basis set:
 # of primitive gaussian shells          ...   80
 # of primitive gaussian functions       ...  204
 # of contracted shells                  ...   50
 # of contracted aux-basis functions     ...  142
 Highest angular momentum                ...    4
 Maximum contraction depth               ...    7
Ratio of auxiliary to basis functions    ...  1.51
Integral package used                  ... LIBINT
 One Electron integrals                  ... done
 Ordering auxiliary basis shells         ... done
 Integral threshhold             Thresh  ...  2.500e-11
 Primitive cut-off               TCut    ...  2.500e-12
 Pre-screening matrix                    ... done
 Shell pair data                         ... 
 Ordering of the shell pairs             ... done (   0.000 sec) 879 of 903 pairs
 Determination of significant pairs      ... done (   0.000 sec)
 Creation of shell pair data             ... done (   0.000 sec)
 Storage of shell pair data              ... done (   0.000 sec)
 Shell pair data done in (   0.001 sec)
 Computing two index integrals           ... done
 Cholesky decomposition of the V-matrix  ... done


Timings:
 Total evaluation time                   ...   0.137 sec (  0.002 min)
 One electron matrix time                ...   0.006 sec (  0.000 min) =  4.4%
 Schwartz matrix evaluation time         ...   0.087 sec (  0.001 min) = 63.8%
 Two index repulsion integral time       ...   0.001 sec (  0.000 min) =  0.4%
 Cholesky decomposition of V             ...   0.028 sec (  0.000 min) = 20.3%
 Three index repulsion integral time     ...   0.000 sec (  0.000 min) =  0.0%

-------------------------------------------------------------------------------
                                 ORCA SCF
-------------------------------------------------------------------------------

------------
SCF SETTINGS
------------
Hamiltonian:
 Density Functional     Method          .... DFT(GTOs)
 Exchange Functional    Exchange        .... WB97X-D3
 Correlation Functional Correlation     .... WB97X-D3
 Gradients option       PostSCFGGA      .... off
 Hybrid DFT is turned on
   Fraction HF Exchange ScalHFX         ....  0.195728
   Scaling of DF-GGA-X  ScalDFX         ....  0.000000
   Scaling of DF-GGA-C  ScalDFC         ....  1.000000
   Scaling of DF-LDA-C  ScalLDAC        ....  1.000000
   Perturbative correction              ....  0.000000
 Long-range corrected/Screened/Range-Separated Hybrid DFT is turned on
   Amount of maximum screened exact exchange              ....  0.804272
   Range separation parameter mu (erf(mu*r12)/r12)        ....  0.250000
 RI-approximation to the Coulomb term is turned on
   Number of auxiliary basis functions  .... 142
   RIJ-COSX (HFX calculated with COS-X)).... on


General Settings:
 Integral files         IntName         .... 3_wb98x-ma-def2-TZVP-GasPhase_onB3LYP_2_waters
 Hartree-Fock type      HFTyp           .... RHF
 Total Charge           Charge          ....    0
 Multiplicity           Mult            ....    1
 Number of Electrons    NEL             ....   20
 Basis Dimension        Dim             ....   94
 Nuclear Repulsion      ENuc            ....     37.4304874412 Eh

Convergence Acceleration:
 DIIS                   CNVDIIS         .... on
   Start iteration      DIISMaxIt       ....    12
   Startup error        DIISStart       ....  0.200000
   # of expansion vecs  DIISMaxEq       ....     5
   Bias factor          DIISBfac        ....   1.050
   Max. coefficient     DIISMaxC        ....  10.000
 Newton-Raphson         CNVNR           .... off
 SOSCF                  CNVSOSCF        .... on
   Start iteration      SOSCFMaxIt      ....   150
   Startup grad/error   SOSCFStart      ....  0.003300
 Level Shifting         CNVShift        .... on
   Level shift para.    LevelShift      ....    0.2500
   Turn off err/grad.   ShiftErr        ....    0.0010
 Zerner damping         CNVZerner       .... off
 Static damping         CNVDamp         .... on
   Fraction old density DampFac         ....    0.7000
   Max. Damping (<1)    DampMax         ....    0.9800
   Min. Damping (>=0)   DampMin         ....    0.0000
   Turn off err/grad.   DampErr         ....    0.1000
 Fernandez-Rico         CNVRico         .... off

SCF Procedure:
 Maximum # iterations   MaxIter         ....   400
 SCF integral mode      SCFMode         .... Direct
   Integral package                     .... LIBINT
 Reset frequeny         DirectResetFreq ....    20
 Integral Threshold     Thresh          ....  2.500e-11 Eh
 Primitive CutOff       TCut            ....  2.500e-12 Eh

Convergence Tolerance:
 Convergence Check Mode ConvCheckMode   .... Total+1el-Energy
 Energy Change          TolE            ....  1.000e-08 Eh
 1-El. energy change                    ....  1.000e-05 Eh
 Orbital Gradient       TolG            ....  1.000e-05
 Orbital Rotation angle TolX            ....  1.000e-05
 DIIS Error             TolErr          ....  5.000e-07


Diagonalization of the overlap matrix:
Smallest eigenvalue                        ... 2.873e-03
Time for diagonalization                   ...    0.083 sec
Threshold for overlap eigenvalues          ... 1.000e-08
Number of eigenvalues below threshold      ... 0
Time for construction of square roots      ...    0.000 sec
Total time needed                          ...    0.084 sec

-------------------
DFT GRID GENERATION
-------------------

General Integration Accuracy     IntAcc      ...  4.670
Radial Grid Type                 RadialGrid  ... Gauss-Chebyshev
Angular Grid (max. acc.)         AngularGrid ... Lebedev-302
Angular grid pruning method      GridPruning ... 3 (G Style)
Weight generation scheme         WeightScheme... Becke
Basis function cutoff            BFCut       ...    1.0000e-11
Integration weight cutoff        WCut        ...    1.0000e-14
Grids for H and He will be reduced by one unit

# of grid points (after initial pruning)     ...  26000 (   0.0 sec)
# of grid points (after weights+screening)   ...  25386 (   0.0 sec)
nearest neighbour list constructed           ...    0.0 sec
Grid point re-assignment to atoms done       ...    0.0 sec
Grid point division into batches done        ...    0.1 sec
Reduced shell lists constructed in    0.3 sec

Total number of grid points                  ...    25386
Total number of batches                      ...      400
Average number of points per batch           ...       63
Average number of grid points per atom       ...     4231
Average number of shells per batch           ...    31.10 (74.05%)
Average number of basis functions per batch  ...    67.83 (72.15%)
Average number of large shells per batch     ...    26.67 (85.74%)
Average number of large basis fcns per batch ...    57.14 (84.25%)
Maximum spatial batch extension              ...  15.21, 19.94, 16.88 au
Average spatial batch extension              ...   2.93,  2.92,  2.87 au

Time for grid setup =    0.306 sec

------------------------------
INITIAL GUESS: MODEL POTENTIAL
------------------------------
Loading Hartree-Fock densities                     ... done
Calculating cut-offs                               ... done
Setting up the integral package                    ... done
Initializing the effective Hamiltonian             ... done
Starting the Coulomb interaction                   ... done (   0.0 sec)
Reading the grid                                   ... done
Mapping shells                                     ... done
Starting the XC term evaluation                    ... done (   0.3 sec)
  promolecular density results
     # of electrons  =     19.998063041
     EX              =    -17.464510845
     EC              =     -0.638641339
     EX+EC           =    -18.103152184
Transforming the Hamiltonian                       ... done (   0.0 sec)
Diagonalizing the Hamiltonian                      ... done (   0.0 sec)
Back transforming the eigenvectors                 ... done (   0.0 sec)
Now organizing SCF variables                       ... done
                      ------------------
                      INITIAL GUESS DONE (   0.7 sec)
                      ------------------
--------------------
COSX GRID GENERATION
--------------------

General Integration Accuracy     IntAcc      ...  3.340
Radial Grid Type                 RadialGrid  ... Gauss-Chebyshev
Angular Grid (max. acc.)         AngularGrid ... Lebedev-50
Angular grid pruning method      GridPruning ... 3 (G Style)
Weight generation scheme         WeightScheme... Becke
Basis function cutoff            BFCut       ...    1.0000e-11
Integration weight cutoff        WCut        ...    1.0000e-14
Grids for H and He will be reduced by one unit

# of grid points (after initial pruning)     ...   2440 (   0.0 sec)
# of grid points (after weights+screening)   ...   2396 (   0.0 sec)
nearest neighbour list constructed           ...    0.0 sec
Grid point re-assignment to atoms done       ...    0.0 sec
Grid point division into batches done        ...    0.0 sec
Reduced shell lists constructed in    0.0 sec

Total number of grid points                  ...     2396
Total number of batches                      ...       40
Average number of points per batch           ...       59
Average number of grid points per atom       ...      399
Average number of shells per batch           ...    35.07 (83.51%)
Average number of basis functions per batch  ...    78.93 (83.96%)
Average number of large shells per batch     ...    31.02 (88.46%)
Average number of large basis fcns per batch ...    67.90 (86.03%)
Maximum spatial batch extension              ...  14.34, 18.93, 20.72 au
Average spatial batch extension              ...   6.57,  6.34,  6.45 au

Overlap Fitting                  UseSFitting ... on
Constructing numerical overlap ... done (      0.0 sec)
Inverting numerical overlap    ... done (      0.0 sec)
Obtaining analytic overlap     ... done (      0.0 sec)
Final contraction and storage  ... done (      0.0 sec)


General Integration Accuracy     IntAcc      ...  3.670
Radial Grid Type                 RadialGrid  ... Gauss-Chebyshev
Angular Grid (max. acc.)         AngularGrid ... Lebedev-50
Angular grid pruning method      GridPruning ... 3 (G Style)
Weight generation scheme         WeightScheme... Becke
Basis function cutoff            BFCut       ...    1.0000e-11
Integration weight cutoff        WCut        ...    1.0000e-14
Grids for H and He will be reduced by one unit

# of grid points (after initial pruning)     ...   3204 (   0.0 sec)
# of grid points (after weights+screening)   ...   3146 (   0.0 sec)
nearest neighbour list constructed           ...    0.0 sec
Grid point re-assignment to atoms done       ...    0.0 sec
Grid point division into batches done        ...    0.0 sec
Reduced shell lists constructed in    0.0 sec

Total number of grid points                  ...     3146
Total number of batches                      ...       52
Average number of points per batch           ...       60
Average number of grid points per atom       ...      524
Average number of shells per batch           ...    34.66 (82.52%)
Average number of basis functions per batch  ...    77.30 (82.24%)
Average number of large shells per batch     ...    30.43 (87.81%)
Average number of large basis fcns per batch ...    66.36 (85.84%)
Maximum spatial batch extension              ...  15.52, 21.01, 22.67 au
Average spatial batch extension              ...   5.65,  5.65,  5.62 au

Overlap Fitting                  UseSFitting ... on
Constructing numerical overlap ... done (      0.0 sec)
Inverting numerical overlap    ... done (      0.0 sec)
Obtaining analytic overlap     ... done (      0.0 sec)
Final contraction and storage  ... done (      0.0 sec)


General Integration Accuracy     IntAcc      ...  4.010
Radial Grid Type                 RadialGrid  ... Gauss-Chebyshev
Angular Grid (max. acc.)         AngularGrid ... Lebedev-110
Angular grid pruning method      GridPruning ... 3 (G Style)
Weight generation scheme         WeightScheme... Becke
Basis function cutoff            BFCut       ...    1.0000e-11
Integration weight cutoff        WCut        ...    1.0000e-14
Grids for H and He will be reduced by one unit

# of grid points (after initial pruning)     ...   5516 (   0.0 sec)
# of grid points (after weights+screening)   ...   5413 (   0.0 sec)
nearest neighbour list constructed           ...    0.0 sec
Grid point re-assignment to atoms done       ...    0.0 sec
Grid point division into batches done        ...    0.0 sec
Reduced shell lists constructed in    0.0 sec

Total number of grid points                  ...     5413
Total number of batches                      ...       87
Average number of points per batch           ...       62
Average number of grid points per atom       ...      902
Average number of shells per batch           ...    33.93 (80.79%)
Average number of basis functions per batch  ...    75.43 (80.25%)
Average number of large shells per batch     ...    29.58 (87.17%)
Average number of large basis fcns per batch ...    64.33 (85.28%)
Maximum spatial batch extension              ...  16.99, 22.68, 20.15 au
Average spatial batch extension              ...   4.81,  5.07,  4.91 au

Overlap Fitting                  UseSFitting ... on
Constructing numerical overlap ... done (      0.0 sec)
Inverting numerical overlap    ... done (      0.0 sec)
Obtaining analytic overlap     ... done (      0.0 sec)
Final contraction and storage  ... done (      0.0 sec)

Time for X-Grid setup             =    0.248 sec
--------------
SCF ITERATIONS
--------------
ITER       Energy         Delta-E        Max-DP      RMS-DP      [F,P]     Damp
               ***  Starting incremental Fock matrix formation  ***
  0   -152.7204175169   0.000000000000 0.04333274  0.00184676  0.3212780 0.7000
  1   -152.7967157866  -0.076298269660 0.02558334  0.00118830  0.1576308 0.7000
                               ***Turning on DIIS***
  2   -152.8281385756  -0.031422788995 0.03514798  0.00184245  0.0578191 0.0000
  3   -152.8771586232  -0.049020047626 0.01823899  0.00077850  0.0816062 0.0000
  4   -152.8872140858  -0.010055462642 0.00310770  0.00012332  0.0098500 0.0000
                      *** Initiating the SOSCF procedure ***
                           *** Shutting down DIIS ***
                      *** Re-Reading the Fockian *** 
                      *** Removing any level shift *** 
ITER      Energy       Delta-E        Grad      Rot      Max-DP    RMS-DP
  5   -152.88739243  -0.0001783414  0.000316  0.000316  0.000635  0.000029
               *** Restarting incremental Fock matrix formation ***
  6   -152.88740055  -0.0000081240  0.000151  0.000265  0.000324  0.000016
  7   -152.88740131  -0.0000007541  0.000130  0.000152  0.000172  0.000010
  8   -152.88740148  -0.0000001719  0.000045  0.000034  0.000051  0.000003
  9   -152.88740150  -0.0000000251  0.000004  0.000006  0.000006  0.000000
 10   -152.88740150   0.0000000005  0.000004  0.000005  0.000004  0.000000
                 **** Energy Check signals convergence ****
              ***Rediagonalizing the Fockian in SOSCF/NRSCF***

               *****************************************************
               *                     SUCCESS                       *
               *           SCF CONVERGED AFTER  11 CYCLES          *
               *****************************************************

Setting up the final grid:

General Integration Accuracy     IntAcc      ...  5.010
Radial Grid Type                 RadialGrid  ... Gauss-Chebyshev
Angular Grid (max. acc.)         AngularGrid ... Lebedev-434
Angular grid pruning method      GridPruning ... 3 (G Style)
Weight generation scheme         WeightScheme... Becke
Basis function cutoff            BFCut       ...    1.0000e-11
Integration weight cutoff        WCut        ...    1.0000e-14
Grids for H and He will be reduced by one unit

# of grid points (after initial pruning)     ...  48452 (   0.0 sec)
# of grid points (after weights+screening)   ...  47278 (   0.0 sec)
nearest neighbour list constructed           ...    0.0 sec
Grid point re-assignment to atoms done       ...    0.0 sec
Grid point division into batches done        ...    0.3 sec
Reduced shell lists constructed in    0.6 sec

Total number of grid points                  ...    47278
Total number of batches                      ...      742
Average number of points per batch           ...       63
Average number of grid points per atom       ...     7880
Average number of shells per batch           ...    30.34 (72.23%)
Average number of basis functions per batch  ...    65.95 (70.16%)
Average number of large shells per batch     ...    25.87 (85.28%)
Average number of large basis fcns per batch ...    55.35 (83.93%)
Maximum spatial batch extension              ...  16.27, 14.90, 15.71 au
Average spatial batch extension              ...   2.39,  2.38,  2.34 au

Final grid set up in    0.6 sec
Final integration                            ... done (   0.6 sec)
Change in XC energy                          ...    -0.000198301
Integrated number of electrons               ...    20.000004640
Previous integrated no of electrons          ...    20.000005820
Old exchange energy                            =     -5.658828656 Eh
New exchange energy                            =     -5.658661003 Eh
Exchange energy change after final integration =      0.000167653 Eh
Total energy after final integration           =   -152.887432151 Eh
Final COS-X integration done in                =     1.403 sec

----------------
TOTAL SCF ENERGY
----------------

Total Energy       :         -152.88743215 Eh           -4160.27853 eV

Components:
Nuclear Repulsion  :           37.43048744 Eh            1018.53534 eV
Electronic Energy  :         -190.31791959 Eh           -5178.81388 eV

One Electron Energy:         -284.18899480 Eh           -7733.17570 eV
Two Electron Energy:           93.87107521 Eh            2554.36182 eV

Virial components:
Potential Energy   :         -305.15471409 Eh           -8303.68192 eV
Kinetic Energy     :          152.26728194 Eh            4143.40339 eV
Virial Ratio       :            2.00407277


DFT components:
N(Alpha)           :       10.000002320210 electrons
N(Beta)            :       10.000002320210 electrons
N(Total)           :       20.000004640420 electrons
E(XC)              :      -12.970523893175 Eh       

---------------
SCF CONVERGENCE
---------------

  Last Energy change         ...   -7.6076e-10  Tolerance :   1.0000e-08
  Last MAX-Density change    ...    3.3723e-15  Tolerance :   1.0000e-07
  Last RMS-Density change    ...    5.9916e-17  Tolerance :   5.0000e-09
  Last Orbital Gradient      ...    5.3890e-07  Tolerance :   1.0000e-05
  Last Orbital Rotation      ...    3.8363e-07  Tolerance :   1.0000e-05

             **** THE GBW FILE WAS UPDATED (3_wb98x-ma-def2-TZVP-GasPhase_onB3LYP_2_waters.gbw) ****
             **** DENSITY FILE WAS UPDATED (3_wb98x-ma-def2-TZVP-GasPhase_onB3LYP_2_waters.scfp.tmp) ****
             **** ENERGY FILE WAS UPDATED (3_wb98x-ma-def2-TZVP-GasPhase_onB3LYP_2_waters.en.tmp) ****
----------------
ORBITAL ENERGIES
----------------

  NO   OCC          E(Eh)            E(eV) 
   0   2.0000     -19.262309      -524.1541 
   1   2.0000     -19.220650      -523.0205 
   2   2.0000      -1.154322       -31.4107 
   3   2.0000      -1.110762       -30.2254 
   4   2.0000      -0.653872       -17.7928 
   5   2.0000      -0.618747       -16.8370 
   6   2.0000      -0.521795       -14.1988 
   7   2.0000      -0.483904       -13.1677 
   8   2.0000      -0.438278       -11.9261 
   9   2.0000      -0.403951       -10.9921 
  10   0.0000       0.065325         1.7776 
  11   0.0000       0.105695         2.8761 
  12   0.0000       0.128393         3.4938 
  13   0.0000       0.141166         3.8413 
  14   0.0000       0.169126         4.6022 
  15   0.0000       0.183346         4.9891 
  16   0.0000       0.186458         5.0738 
  17   0.0000       0.221399         6.0246 
  18   0.0000       0.237542         6.4639 
  19   0.0000       0.260449         7.0872 
  20   0.0000       0.291148         7.9225 
  21   0.0000       0.300267         8.1707 
  22   0.0000       0.552233        15.0270 
  23   0.0000       0.564530        15.3616 
  24   0.0000       0.595567        16.2062 
  25   0.0000       0.638957        17.3869 
  26   0.0000       0.661838        18.0095 
  27   0.0000       0.679528        18.4909 
  28   0.0000       0.700352        19.0575 
  29   0.0000       0.711721        19.3669 
  30   0.0000       0.720816        19.6144 
  31   0.0000       0.734533        19.9877 
  32   0.0000       0.857476        23.3331 
  33   0.0000       0.903385        24.5823 
  34   0.0000       1.231199        33.5026 
  35   0.0000       1.250763        34.0350 
  36   0.0000       1.304595        35.4998 
  37   0.0000       1.367901        37.2225 
  38   0.0000       1.380443        37.5638 
  39   0.0000       1.421691        38.6862 
  40   0.0000       1.680097        45.7178 
  41   0.0000       1.762155        47.9507 
  42   0.0000       1.799353        48.9629 
  43   0.0000       1.836176        49.9649 
  44   0.0000       1.893826        51.5336 
  45   0.0000       1.960543        53.3491 
  46   0.0000       2.124906        57.8216 
  47   0.0000       2.190380        59.6033 
  48   0.0000       2.207785        60.0769 
  49   0.0000       2.266663        61.6790 
  50   0.0000       2.293477        62.4087 
  51   0.0000       2.376145        64.6582 
  52   0.0000       2.427998        66.0692 
  53   0.0000       2.500401        68.0394 
  54   0.0000       2.519046        68.5467 
  55   0.0000       2.572280        69.9953 
  56   0.0000       2.675662        72.8085 
  57   0.0000       2.715711        73.8983 
  58   0.0000       2.769325        75.3572 
  59   0.0000       2.783557        75.7444 
  60   0.0000       2.868796        78.0639 
  61   0.0000       2.899067        78.8876 
  62   0.0000       3.034198        82.5647 
  63   0.0000       3.101539        84.3972 
  64   0.0000       3.777142       102.7812 
  65   0.0000       3.833265       104.3085 
  66   0.0000       4.001882       108.8968 
  67   0.0000       4.050184       110.2111 
  68   0.0000       5.171393       140.7208 
  69   0.0000       5.209400       141.7550 
  70   0.0000       5.281668       143.7215 
  71   0.0000       5.319742       144.7575 
  72   0.0000       5.440688       148.0486 
  73   0.0000       5.472544       148.9155 
  74   0.0000       5.482588       149.1888 
  75   0.0000       5.507664       149.8711 
  76   0.0000       5.515729       150.0906 
  77   0.0000       5.566166       151.4631 
  78   0.0000       6.092938       165.7973 
  79   0.0000       6.110313       166.2701 
  80   0.0000       6.268598       170.5772 
  81   0.0000       6.355697       172.9473 
  82   0.0000       6.405176       174.2937 
  83   0.0000       6.413599       174.5229 
  84   0.0000       6.453976       175.6216 
  85   0.0000       6.488236       176.5539 
  86   0.0000       6.538338       177.9172 
  87   0.0000       6.566890       178.6942 
  88   0.0000       6.982990       190.0168 
  89   0.0000       7.027615       191.2311 
  90   0.0000       7.138135       194.2385 
  91   0.0000       7.170007       195.1058 
  92   0.0000      43.474843      1183.0106 
  93   0.0000      43.552865      1185.1337 

                    ********************************
                    * MULLIKEN POPULATION ANALYSIS *
                    ********************************

-----------------------
MULLIKEN ATOMIC CHARGES
-----------------------
   0 O :   -0.676838
   1 H :    0.355576
   2 H :    0.355344
   3 O :   -0.693832
   4 H :    0.334282
   5 H :    0.325468
Sum of atomic charges:   -0.0000000

--------------------------------
MULLIKEN REDUCED ORBITAL CHARGES
--------------------------------
  0 O s       :     3.804725  s :     3.804725
      pz      :     1.838469  p :     4.847612
      px      :     1.450640
      py      :     1.558503
      dz2     :     0.003379  d :     0.023244
      dxz     :     0.002831
      dyz     :     0.002794
      dx2y2   :     0.007806
      dxy     :     0.006433
      f0      :     0.000272  f :     0.001257
      f+1     :     0.000142
      f-1     :     0.000198
      f+2     :     0.000204
      f-2     :     0.000135
      f+3     :     0.000284
      f-3     :     0.000021
  1 H s       :     0.598440  s :     0.598440
      pz      :     0.015581  p :     0.045984
      px      :     0.012954
      py      :     0.017449
  2 H s       :     0.598775  s :     0.598775
      pz      :     0.015794  p :     0.045882
      px      :     0.018297
      py      :     0.011791
  3 O s       :     3.828468  s :     3.828468
      pz      :     1.625767  p :     4.843152
      px      :     1.611377
      py      :     1.606009
      dz2     :     0.000811  d :     0.020969
      dxz     :     0.002475
      dyz     :     0.007440
      dx2y2   :     0.005902
      dxy     :     0.004342
      f0      :     0.000228  f :     0.001242
      f+1     :     0.000131
      f-1     :     0.000102
      f+2     :     0.000443
      f-2     :     0.000227
      f+3     :     0.000009
      f-3     :     0.000102
  4 H s       :     0.611415  s :     0.611415
      pz      :     0.019514  p :     0.054302
      px      :     0.022088
      py      :     0.012701
  5 H s       :     0.626486  s :     0.626486
      pz      :     0.016796  p :     0.048047
      px      :     0.014320
      py      :     0.016931


                     *******************************
                     * LOEWDIN POPULATION ANALYSIS *
                     *******************************

----------------------
LOEWDIN ATOMIC CHARGES
----------------------
   0 O :   -0.352294
   1 H :    0.193871
   2 H :    0.196611
   3 O :   -0.396456
   4 H :    0.176125
   5 H :    0.182143

-------------------------------
LOEWDIN REDUCED ORBITAL CHARGES
-------------------------------
  0 O s       :     3.485732  s :     3.485732
      pz      :     1.796385  p :     4.830943
      px      :     1.459294
      py      :     1.575263
      dz2     :     0.004424  d :     0.033312
      dxz     :     0.005265
      dyz     :     0.002236
      dx2y2   :     0.011547
      dxy     :     0.009841
      f0      :     0.000363  f :     0.002307
      f+1     :     0.000108
      f-1     :     0.000286
      f+2     :     0.000364
      f-2     :     0.000185
      f+3     :     0.000728
      f-3     :     0.000273
  1 H s       :     0.649352  s :     0.649352
      pz      :     0.042567  p :     0.156776
      px      :     0.038308
      py      :     0.075901
  2 H s       :     0.647150  s :     0.647150
      pz      :     0.049889  p :     0.156239
      px      :     0.071158
      py      :     0.035192
  3 O s       :     3.486625  s :     3.486625
      pz      :     1.612715  p :     4.876068
      px      :     1.622966
      py      :     1.640387
      dz2     :     0.000492  d :     0.031443
      dxz     :     0.005859
      dyz     :     0.011974
      dx2y2   :     0.008153
      dxy     :     0.004966
      f0      :     0.000443  f :     0.002319
      f+1     :     0.000077
      f-1     :     0.000183
      f+2     :     0.000776
      f-2     :     0.000368
      f+3     :     0.000102
      f-3     :     0.000370
  4 H s       :     0.649975  s :     0.649975
      pz      :     0.057263  p :     0.173901
      px      :     0.077538
      py      :     0.039100
  5 H s       :     0.659844  s :     0.659844
      pz      :     0.053686  p :     0.158013
      px      :     0.036332
      py      :     0.067996


                      *****************************
                      * MAYER POPULATION ANALYSIS *
                      *****************************

  NA   - Mulliken gross atomic population
  ZA   - Total nuclear charge
  QA   - Mulliken gross atomic charge
  VA   - Mayer's total valence
  BVA  - Mayer's bonded valence
  FA   - Mayer's free valence

  ATOM       NA         ZA         QA         VA         BVA        FA
  0 O      8.6768     8.0000    -0.6768     1.8172     1.8172     0.0000
  1 H      0.6444     1.0000     0.3556     0.8940     0.8940    -0.0000
  2 H      0.6447     1.0000     0.3553     0.8955     0.8955    -0.0000
  3 O      8.6938     8.0000    -0.6938     1.7685     1.7685    -0.0000
  4 H      0.6657     1.0000     0.3343     0.9084     0.9084    -0.0000
  5 H      0.6745     1.0000     0.3255     0.9133     0.9133    -0.0000

  Mayer bond orders larger than 0.1
B(  0-O ,  1-H ) :   0.8901 B(  0-O ,  2-H ) :   0.8883 B(  3-O ,  4-H ) :   0.8660 
B(  3-O ,  5-H ) :   0.9008 

-------
TIMINGS
-------

Total SCF time: 0 days 0 hours 0 min 16 sec 

Total time                  ....      16.612 sec
Sum of individual times     ....      16.095 sec  ( 96.9%)

Fock matrix formation       ....      14.171 sec  ( 85.3%)
  Coulomb formation         ....       9.513 sec  ( 67.1% of F)
  Split-RI-J                ....       1.108 sec  (  7.8% of F)
  Chain of spheres X        ....       9.802 sec  ( 69.2% of F)
  COS-X 1 center corr.      ....       0.000 sec  (  0.0% of F)
  XC integration            ....       4.655 sec  ( 32.8% of F)
    Basis function eval.    ....       2.048 sec  ( 44.0% of XC)
    Density eval.           ....       0.408 sec  (  8.8% of XC)
    XC-Functional eval.     ....       1.284 sec  ( 27.6% of XC)
    XC-Potential eval.      ....       0.836 sec  ( 18.0% of XC)
Diagonalization             ....       0.011 sec  (  0.1%)
Density matrix formation    ....       0.001 sec  (  0.0%)
Population analysis         ....       0.003 sec  (  0.0%)
Initial guess               ....       0.685 sec  (  4.1%)
Orbital Transformation      ....       0.000 sec  (  0.0%)
Orbital Orthonormalization  ....       0.000 sec  (  0.0%)
DIIS solution               ....       0.002 sec  (  0.0%)
SOSCF solution              ....       0.023 sec  (  0.1%)
Grid generation             ....       1.198 sec  (  7.2%)

Entering the calculation of the dispersion correction...

Checking the input atom types...

Done


-------------------------------------------------------------------------------
                          DFT DISPERSION CORRECTION                            
                                                                               
                                DFTD3 V2.1  Rev 6                               
                              USING zero damping                               
-------------------------------------------------------------------------------
The omegaB97X-D3 functional is recognized. Fit by Chai et al.
Active option DFTDOPT                   ...         3   

molecular C6(AA) [au] = 178.126970 


            DFT-D V3
 parameters
 s6 scaling factor         :     1.0000 
 rs6 scaling factor        :     1.2810 
 s8 scaling factor         :     1.0000 
 rs8 scaling factor        :     1.0940 
 Damping factor alpha6     :    14.0000 
 Damping factor alpha8     :    16.0000 
 ad hoc parameters k1-k3   :    16.0000     1.3333    -4.0000 

 Edisp/kcal,au: -0.344562125608  -0.000549094640 
 E6   /kcal   :  -0.134551401 
 E8   /kcal   :  -0.210010725 
 % E8         :  60.950031633 

-------------------------   ----------------
Dispersion correction           -0.000549095
-------------------------   ----------------


-------------------------   --------------------
FINAL SINGLE POINT ENERGY      -152.887981245330
-------------------------   --------------------


                            ***************************************
                            *     ORCA property calculations      *
                            ***************************************

                                    ---------------------
                                    Active property flags
                                    ---------------------
   (+) Dipole Moment


------------------------------------------------------------------------------
                       ORCA ELECTRIC PROPERTIES CALCULATION
------------------------------------------------------------------------------

Dipole Moment Calculation                       ... on
Quadrupole Moment Calculation                   ... off
Polarizability Calculation                      ... off
GBWName                                         ... 3_wb98x-ma-def2-TZVP-GasPhase_onB3LYP_2_waters.gbw
Electron density file                           ... 3_wb98x-ma-def2-TZVP-GasPhase_onB3LYP_2_waters.scfp.tmp

-------------
DIPOLE MOMENT
-------------
                                X             Y             Z
Electronic contribution:      0.09759      -0.01458      -0.11256
Nuclear contribution   :      0.12770       0.04668      -0.13671
                        -----------------------------------------
Total Dipole Moment    :      0.22529       0.03210      -0.24927
                        -----------------------------------------
Magnitude (a.u.)       :      0.33752
Magnitude (Debye)      :      0.85792


Timings for individual modules:

Sum of individual times         ...       20.473 sec (=   0.341 min)
GTO integral calculation        ...        1.579 sec (=   0.026 min)   7.7 %
SCF iterations                  ...       18.894 sec (=   0.315 min)  92.3 %
                             ****ORCA TERMINATED NORMALLY****
TOTAL RUN TIME: 0 days 0 hours 0 minutes 20 seconds 690 msec
cp: cannot stat ‘/scratch/slurm-2199321/*.{prop}’: No such file or directory
