
                                 *****************
                                 * O   R   C   A *
                                 *****************

           --- An Ab Initio, DFT and Semiempirical electronic structure package ---

                  #######################################################
                  #                        -***-                        #
                  #  Department of molecular theory and spectroscopy    #
                  #              Directorship: Frank Neese              #
                  # Max Planck Institute for Chemical Energy Conversion #
                  #                  D-45470 Muelheim/Ruhr              #
                  #                       Germany                       #
                  #                                                     #
                  #                  All rights reserved                #
                  #                        -***-                        #
                  #######################################################


                         Program Version 3.0.3 - RELEASE   -


 With contributions from (in alphabetic order):
   Ute Becker             : Parallelization
   Dmytro Bykov           : SCF Hessian
   Dmitry Ganyushin       : Spin-Orbit,Spin-Spin,Magnetic field MRCI
   Andreas Hansen         : Spin unrestricted coupled pair/coupled cluster methods
   Dimitrios Liakos       : Extrapolation schemes; parallel MDCI
   Robert Izsak           : Overlap fitted RIJCOSX, COSX-SCS-MP3
   Christian Kollmar      : KDIIS, OOCD, Brueckner-CCSD(T), CCSD density
   Simone Kossmann        : Meta GGA functionals, TD-DFT gradient, OOMP2, MP2 Hessian
   Taras Petrenko         : DFT Hessian,TD-DFT gradient, ASA and ECA modules, normal mode analysis, Resonance Raman, ABS, FL, XAS/XES, NRVS
   Christoph Reimann      : Effective Core Potentials
   Michael Roemelt        : Restricted open shell CIS
   Christoph Riplinger    : Improved optimizer, TS searches, QM/MM, DLPNO-CCSD
   Barbara Sandhoefer     : DKH picture change effects
   Igor Schapiro          : Molecular dynamics
   Kantharuban Sivalingam : CASSCF convergence, NEVPT2
   Boris Wezisla          : Elementary symmetry handling
   Frank Wennmohs         : Technical directorship


 We gratefully acknowledge several colleagues who have allowed us to
 interface, adapt or use parts of their codes:
   Stefan Grimme, W. Hujo, H. Kruse, T. Risthaus : VdW corrections, initial TS optimization,
                                                   DFT functionals, gCP
   Ed Valeev                                     : LibInt (2-el integral package), F12 methods
   Garnet Chan, S. Sharma, R. Olivares           : DMRG
   Ulf Ekstrom                                   : XCFun DFT Library
   Mihaly Kallay                                 : mrcc  (arbitrary order and MRCC methods)
   Andreas Klamt, Michael Diedenhofen            : otool_cosmo (COSMO solvation model)
   Frank Weinhold                                : gennbo (NPA and NBO analysis)
   Christopher J. Cramer and Donald G. Truhlar   : smd solvation model


 Your calculation uses the libint2 library for the computation of 2-el integrals
 For citations please refer to: http://libint.valeyev.net

 This ORCA versions uses:
   CBLAS   interface :  Fast vector & matrix operations
   LAPACKE interface :  Fast linear algebra routines
   SCALAPACK package :  Parallel linear algebra routines


Your calculation utilizes the basis: Ahlrichs-TZV
Cite in your paper:
H - Kr: A. Schaefer, H. Horn and R. Ahlrichs, J. Chem. Phys. 97, 2571 (1992).

The def2-TZV basis will be loaded
Cite in your paper:
 	F. Weigend, R. Ahlrichs, Phys. Chem. Chem. Phys. 2005, 7, 3297.

Your calculation utilizes the atom-pairwise dispersion correction
with the zero-damping scheme (D30)
Cite in your paper:
S.Grimme, J.Antony, S.Ehrlich and H.Krieg, J.Chem.Phys., 132, (2010), 154104 
   

XCFun DFT library Copyright 2009-2010 Ulf Ekstrom and contributors.
See http://admol.org/xcfun for more information. This is free soft-
ware; see the source code for copying conditions. There is ABSOLUTELY
NO WARRANTY; not even for MERCHANTABILITY or FITNESS FOR A PARTICULAR
PURPOSE. For details see the documentation. Scientific users of this 
library should cite U. Ekstrom, L. Visscher, R. Bast, A. J. Thorvald-
sen and K. Ruud; J.Chem.Theor.Comp. 2010, DOI: 10.1021/ct100117s
XCFun Version 0.99 
================================================================================
                                        WARNINGS
                       Please study these warnings very carefully!
================================================================================
Now building the actual basis set


INFO   : the flag for use of LIBINT has been found!

================================================================================
                                       INPUT FILE
================================================================================
NAME = 3_wB97X_GasPhase_onB3LYP_2_waters.inp
|  1> ! wB97X-D3 Def2-TZVP def2-TZVP/J RIJCOSX TightSCF Grid4 
|  2> 
|  3> %pal nprocs 12 end
|  4> 
|  5> %scf
|  6>         maxiter 400
|  7> end
|  8> 
|  9> * xyz  0  1
| 10> O  0.919606	-0.137971	-1.063021
| 11> H  1.345167	0.718229	-0.908701
| 12> H  0.064874	0.107680	-1.449962
| 13> O  -0.921796	0.097836	1.042596
| 14> H  -0.150256	-0.200849	0.528294
| 15> H  -1.110747	-0.649246	1.625272
| 16> **                         ****END OF INPUT****
================================================================================

                       ****************************
                       * Single Point Calculation *
                       ****************************

---------------------------------
CARTESIAN COORDINATES (ANGSTROEM)
---------------------------------
  O      0.919606   -0.137971   -1.063021
  H      1.345167    0.718229   -0.908701
  H      0.064874    0.107680   -1.449962
  O     -0.921796    0.097836    1.042596
  H     -0.150256   -0.200849    0.528294
  H     -1.110747   -0.649246    1.625272

----------------------------
CARTESIAN COORDINATES (A.U.)
----------------------------
  NO LB      ZA    FRAG    MASS        X           Y           Z
   0 O     8.0000    0    15.999          1.737803491110787         -0.260727404423249         -2.008818564607103
   1 H     1.0000    0     1.008          2.541997234388448          1.357256111440127         -1.717196027620375
   2 H     1.0000    0     1.008          0.122594093212007          0.203485710100640         -2.740031084592726
   3 O     8.0000    0    15.999         -1.741941991344074          0.184883246038320          1.970220908321761
   4 H     1.0000    0     1.008         -0.283942689978472         -0.379549604271949          0.998330978193794
   5 H     1.0000    0     1.008         -2.099007634074628         -1.226897133543837          3.071318973130460

--------------------------------
INTERNAL COORDINATES (ANGSTROEM)
--------------------------------
 O      0   0   0   0.000000     0.000     0.000
 H      1   0   0   0.968502     0.000     0.000
 H      1   2   0   0.969863   103.114     0.000
 O      3   1   2   2.680757    87.276   268.374
 H      4   3   1   0.974163    38.624   344.957
 H      4   3   1   0.966098   129.465   287.658

---------------------------
INTERNAL COORDINATES (A.U.)
---------------------------
 O      0   0   0   0.000000     0.000     0.000
 H      1   0   0   1.830203     0.000     0.000
 H      1   2   0   1.832776   103.114     0.000
 O      3   1   2   5.065897    87.276   268.374
 H      4   3   1   1.840901    38.624   344.957
 H      4   3   1   1.825661   129.465   287.658

---------------------
BASIS SET INFORMATION
---------------------
There are 2 groups of distinct atoms

 Group   1 Type O   : 11s6p2d1f contracted to 5s3p2d1f pattern {62111/411/11/1}
 Group   2 Type H   : 5s1p contracted to 3s1p pattern {311/1}

Atom   0O    basis set group =>   1
Atom   1H    basis set group =>   2
Atom   2H    basis set group =>   2
Atom   3O    basis set group =>   1
Atom   4H    basis set group =>   2
Atom   5H    basis set group =>   2
-------------------------------
AUXILIARY BASIS SET INFORMATION
-------------------------------
There are 2 groups of distinct atoms

 Group   1 Type O   : 12s5p4d2f1g contracted to 6s4p3d1f1g pattern {711111/2111/211/2/1}
 Group   2 Type H   : 5s2p1d contracted to 3s1p1d pattern {311/2/1}

Atom   0O    basis set group =>   1
Atom   1H    basis set group =>   2
Atom   2H    basis set group =>   2
Atom   3O    basis set group =>   1
Atom   4H    basis set group =>   2
Atom   5H    basis set group =>   2
smp-n80.crc.pitt.edu.22760hfi_wait_for_device: The /dev/hfi1_0 device failed to appear after 15.0 seconds: Connection timed out
smp-n80.crc.pitt.edu.22761hfi_wait_for_device: The /dev/hfi1_0 device failed to appear after 15.0 seconds: Connection timed out
smp-n80.crc.pitt.edu.22762hfi_wait_for_device: The /dev/hfi1_0 device failed to appear after 15.0 seconds: Connection timed out
smp-n80.crc.pitt.edu.22763hfi_wait_for_device: The /dev/hfi1_0 device failed to appear after 15.0 seconds: Connection timed out
smp-n80.crc.pitt.edu.22765hfi_wait_for_device: The /dev/hfi1_0 device failed to appear after 15.0 seconds: Connection timed out
smp-n80.crc.pitt.edu.22764hfi_wait_for_device: The /dev/hfi1_0 device failed to appear after 15.0 seconds: Connection timed out
smp-n80.crc.pitt.edu.22771hfi_wait_for_device: The /dev/hfi1_0 device failed to appear after 15.0 seconds: Connection timed out
smp-n80.crc.pitt.edu.22766hfi_wait_for_device: The /dev/hfi1_0 device failed to appear after 15.0 seconds: Connection timed out
smp-n80.crc.pitt.edu.22768hfi_wait_for_device: The /dev/hfi1_0 device failed to appear after 15.0 seconds: Connection timed out
smp-n80.crc.pitt.edu.22773hfi_wait_for_device: The /dev/hfi1_0 device failed to appear after 15.0 seconds: Connection timed out
smp-n80.crc.pitt.edu.22775hfi_wait_for_device: The /dev/hfi1_0 device failed to appear after 15.0 seconds: Connection timed out
smp-n80.crc.pitt.edu.22778hfi_wait_for_device: The /dev/hfi1_0 device failed to appear after 15.0 seconds: Connection timed out


           ************************************************************
           *        Program running with 12 parallel MPI-processes    *
           *              working on a common directory               *
           ************************************************************
------------------------------------------------------------------------------
                           ORCA GTO INTEGRAL CALCULATION
                           -- RI-GTO INTEGRALS CHOSEN --
------------------------------------------------------------------------------

                         BASIS SET STATISTICS AND STARTUP INFO

Gaussian basis set:
 # of primitive gaussian shells          ...   64
 # of primitive gaussian functions       ...  124
 # of contracted shells                  ...   38
 # of contracted basis functions         ...   86
 Highest angular momentum                ...    3
 Maximum contraction depth               ...    6
Auxiliary gaussian basis set:
 # of primitive gaussian shells          ...   80
 # of primitive gaussian functions       ...  204
 # of contracted shells                  ...   50
 # of contracted aux-basis functions     ...  142
 Highest angular momentum                ...    4
 Maximum contraction depth               ...    7
Ratio of auxiliary to basis functions    ...  1.65
Integral package used                  ... LIBINT
 One Electron integrals                  ... done
 Ordering auxiliary basis shells         ... done
 Integral threshhold             Thresh  ...  2.500e-11
 Primitive cut-off               TCut    ...  2.500e-12
 Pre-screening matrix                    ... done
 Shell pair data                         ... 
 Ordering of the shell pairs             ... done (   0.000 sec) 717 of 741 pairs
 Determination of significant pairs      ... done (   0.000 sec)
 Creation of shell pair data             ... done (   0.000 sec)
 Storage of shell pair data              ... done (   0.000 sec)
 Shell pair data done in (   0.000 sec)
 Computing two index integrals           ... done
 Cholesky decomposition of the V-matrix  ... done


Timings:
 Total evaluation time                   ...   0.102 sec (  0.002 min)
 One electron matrix time                ...   0.005 sec (  0.000 min) =  5.2%
 Schwartz matrix evaluation time         ...   0.075 sec (  0.001 min) = 73.9%
 Two index repulsion integral time       ...   0.006 sec (  0.000 min) =  6.0%
 Cholesky decomposition of V             ...   0.001 sec (  0.000 min) =  0.5%
 Three index repulsion integral time     ...   0.000 sec (  0.000 min) =  0.0%

           ************************************************************
           *              Shut down parallel processing               *
           ************************************************************
smp-n80.crc.pitt.edu.22844hfi_wait_for_device: The /dev/hfi1_0 device failed to appear after 15.0 seconds: Connection timed out
smp-n80.crc.pitt.edu.22845hfi_wait_for_device: The /dev/hfi1_0 device failed to appear after 15.0 seconds: Connection timed out
smp-n80.crc.pitt.edu.22846hfi_wait_for_device: The /dev/hfi1_0 device failed to appear after 15.0 seconds: Connection timed out
smp-n80.crc.pitt.edu.22848hfi_wait_for_device: The /dev/hfi1_0 device failed to appear after 15.0 seconds: Connection timed out
smp-n80.crc.pitt.edu.22849hfi_wait_for_device: The /dev/hfi1_0 device failed to appear after 15.0 seconds: Connection timed out
smp-n80.crc.pitt.edu.22850hfi_wait_for_device: The /dev/hfi1_0 device failed to appear after 15.0 seconds: Connection timed out
smp-n80.crc.pitt.edu.22851hfi_wait_for_device: The /dev/hfi1_0 device failed to appear after 15.0 seconds: Connection timed out
smp-n80.crc.pitt.edu.22852hfi_wait_for_device: The /dev/hfi1_0 device failed to appear after 15.0 seconds: Connection timed out
smp-n80.crc.pitt.edu.22857hfi_wait_for_device: The /dev/hfi1_0 device failed to appear after 15.0 seconds: Connection timed out
smp-n80.crc.pitt.edu.22847hfi_wait_for_device: The /dev/hfi1_0 device failed to appear after 15.0 seconds: Connection timed out
smp-n80.crc.pitt.edu.22854hfi_wait_for_device: The /dev/hfi1_0 device failed to appear after 15.0 seconds: Connection timed out
smp-n80.crc.pitt.edu.22859hfi_wait_for_device: The /dev/hfi1_0 device failed to appear after 15.0 seconds: Connection timed out


           ************************************************************
           *        Program running with 12 parallel MPI-processes    *
           *              working on a common directory               *
           ************************************************************
-------------------------------------------------------------------------------
                                 ORCA SCF
-------------------------------------------------------------------------------

------------
SCF SETTINGS
------------
Hamiltonian:
 Density Functional     Method          .... DFT(GTOs)
 Exchange Functional    Exchange        .... WB97X-D3
 Correlation Functional Correlation     .... WB97X-D3
 Gradients option       PostSCFGGA      .... off
 Hybrid DFT is turned on
   Fraction HF Exchange ScalHFX         ....  0.195728
   Scaling of DF-GGA-X  ScalDFX         ....  0.000000
   Scaling of DF-GGA-C  ScalDFC         ....  1.000000
   Scaling of DF-LDA-C  ScalLDAC        ....  1.000000
   Perturbative correction              ....  0.000000
 Long-range corrected/Screened/Range-Separated Hybrid DFT is turned on
   Amount of maximum screened exact exchange              ....  0.804272
   Range separation parameter mu (erf(mu*r12)/r12)        ....  0.250000
 RI-approximation to the Coulomb term is turned on
   Number of auxiliary basis functions  .... 142
   RIJ-COSX (HFX calculated with COS-X)).... on


General Settings:
 Integral files         IntName         .... 3_wB97X_GasPhase_onB3LYP_2_waters
 Hartree-Fock type      HFTyp           .... RHF
 Total Charge           Charge          ....    0
 Multiplicity           Mult            ....    1
 Number of Electrons    NEL             ....   20
 Basis Dimension        Dim             ....   86
 Nuclear Repulsion      ENuc            ....     37.4304874412 Eh

Convergence Acceleration:
 DIIS                   CNVDIIS         .... on
   Start iteration      DIISMaxIt       ....    12
   Startup error        DIISStart       ....  0.200000
   # of expansion vecs  DIISMaxEq       ....     5
   Bias factor          DIISBfac        ....   1.050
   Max. coefficient     DIISMaxC        ....  10.000
 Newton-Raphson         CNVNR           .... off
 SOSCF                  CNVSOSCF        .... on
   Start iteration      SOSCFMaxIt      ....   150
   Startup grad/error   SOSCFStart      ....  0.003300
 Level Shifting         CNVShift        .... on
   Level shift para.    LevelShift      ....    0.2500
   Turn off err/grad.   ShiftErr        ....    0.0010
 Zerner damping         CNVZerner       .... off
 Static damping         CNVDamp         .... on
   Fraction old density DampFac         ....    0.7000
   Max. Damping (<1)    DampMax         ....    0.9800
   Min. Damping (>=0)   DampMin         ....    0.0000
   Turn off err/grad.   DampErr         ....    0.1000
 Fernandez-Rico         CNVRico         .... off

SCF Procedure:
 Maximum # iterations   MaxIter         ....   400
 SCF integral mode      SCFMode         .... Direct
   Integral package                     .... LIBINT
 Reset frequeny         DirectResetFreq ....    20
 Integral Threshold     Thresh          ....  2.500e-11 Eh
 Primitive CutOff       TCut            ....  2.500e-12 Eh

Convergence Tolerance:
 Convergence Check Mode ConvCheckMode   .... Total+1el-Energy
 Energy Change          TolE            ....  1.000e-08 Eh
 1-El. energy change                    ....  1.000e-05 Eh
 Orbital Gradient       TolG            ....  1.000e-05
 Orbital Rotation angle TolX            ....  1.000e-05
 DIIS Error             TolErr          ....  5.000e-07


Diagonalization of the overlap matrix:
Smallest eigenvalue                        ... 6.909e-03
Time for diagonalization                   ...    0.002 sec
Threshold for overlap eigenvalues          ... 1.000e-08
Number of eigenvalues below threshold      ... 0
Time for construction of square roots      ...    0.000 sec
Total time needed                          ...    0.002 sec

-------------------
DFT GRID GENERATION
-------------------

General Integration Accuracy     IntAcc      ...  4.670
Radial Grid Type                 RadialGrid  ... Gauss-Chebyshev
Angular Grid (max. acc.)         AngularGrid ... Lebedev-302
Angular grid pruning method      GridPruning ... 3 (G Style)
Weight generation scheme         WeightScheme... Becke
Basis function cutoff            BFCut       ...    1.0000e-11
Integration weight cutoff        WCut        ...    1.0000e-14
Grids for H and He will be reduced by one unit

# of grid points (after initial pruning)     ...  26000 (   0.0 sec)
# of grid points (after weights+screening)   ...  25386 (   0.0 sec)
nearest neighbour list constructed           ...    0.0 sec
Grid point re-assignment to atoms done       ...    0.0 sec
Grid point division into batches done        ...    0.1 sec
Reduced shell lists constructed in    0.1 sec

Total number of grid points                  ...    25386
Total number of batches                      ...      400
Average number of points per batch           ...       63
Average number of grid points per atom       ...     4231
Average number of shells per batch           ...    25.11 (66.09%)
Average number of basis functions per batch  ...    55.06 (64.02%)
Average number of large shells per batch     ...    20.89 (83.16%)
Average number of large basis fcns per batch ...    44.60 (81.01%)
Maximum spatial batch extension              ...  11.94, 13.98, 16.88 au
Average spatial batch extension              ...   0.31,  0.28,  0.33 au

Time for grid setup =    0.086 sec

------------------------------
INITIAL GUESS: MODEL POTENTIAL
------------------------------
Loading Hartree-Fock densities                     ... done
Calculating cut-offs                               ... done
Setting up the integral package                    ... done
Initializing the effective Hamiltonian             ... done
Starting the Coulomb interaction                   ... done (   0.0 sec)
Reading the grid                                   ... done
Mapping shells                                     ... done
Starting the XC term evaluation                    ... done (   0.0 sec)
  promolecular density results
     # of electrons  =     19.998063041
     EX              =    -17.464510845
     EC              =     -0.638641339
     EX+EC           =    -18.103152184
Transforming the Hamiltonian                       ... done (   0.0 sec)
Diagonalizing the Hamiltonian                      ... done (   0.0 sec)
Back transforming the eigenvectors                 ... done (   0.0 sec)
Now organizing SCF variables                       ... done
                      ------------------
                      INITIAL GUESS DONE (   0.2 sec)
                      ------------------
--------------------
COSX GRID GENERATION
--------------------

General Integration Accuracy     IntAcc      ...  3.340
Radial Grid Type                 RadialGrid  ... Gauss-Chebyshev
Angular Grid (max. acc.)         AngularGrid ... Lebedev-50
Angular grid pruning method      GridPruning ... 3 (G Style)
Weight generation scheme         WeightScheme... Becke
Basis function cutoff            BFCut       ...    1.0000e-11
Integration weight cutoff        WCut        ...    1.0000e-14
Grids for H and He will be reduced by one unit

# of grid points (after initial pruning)     ...   2440 (   0.0 sec)
# of grid points (after weights+screening)   ...   2396 (   0.0 sec)
nearest neighbour list constructed           ...    0.0 sec
Grid point re-assignment to atoms done       ...    0.0 sec
Grid point division into batches done        ...    0.0 sec
Reduced shell lists constructed in    0.0 sec

Total number of grid points                  ...     2396
Total number of batches                      ...       40
Average number of points per batch           ...       59
Average number of grid points per atom       ...      399
Average number of shells per batch           ...    26.60 (70.00%)
Average number of basis functions per batch  ...    61.00 (70.93%)
Average number of large shells per batch     ...    22.60 (84.96%)
Average number of large basis fcns per batch ...    49.80 (81.64%)
Maximum spatial batch extension              ...  11.97, 12.49, 13.70 au
Average spatial batch extension              ...   0.88,  0.76,  0.90 au

Overlap Fitting                  UseSFitting ... on
Constructing numerical overlap ... done (      0.0 sec)
Inverting numerical overlap    ... done (      0.0 sec)
Obtaining analytic overlap     ... done (      0.0 sec)
Final contraction and storage  ... done (      0.0 sec)


General Integration Accuracy     IntAcc      ...  3.670
Radial Grid Type                 RadialGrid  ... Gauss-Chebyshev
Angular Grid (max. acc.)         AngularGrid ... Lebedev-50
Angular grid pruning method      GridPruning ... 3 (G Style)
Weight generation scheme         WeightScheme... Becke
Basis function cutoff            BFCut       ...    1.0000e-11
Integration weight cutoff        WCut        ...    1.0000e-14
Grids for H and He will be reduced by one unit

# of grid points (after initial pruning)     ...   3204 (   0.0 sec)
# of grid points (after weights+screening)   ...   3146 (   0.0 sec)
nearest neighbour list constructed           ...    0.0 sec
Grid point re-assignment to atoms done       ...    0.0 sec
Grid point division into batches done        ...    0.0 sec
Reduced shell lists constructed in    0.0 sec

Total number of grid points                  ...     3146
Total number of batches                      ...       52
Average number of points per batch           ...       60
Average number of grid points per atom       ...      524
Average number of shells per batch           ...    26.33 (69.30%)
Average number of basis functions per batch  ...    58.33 (67.83%)
Average number of large shells per batch     ...    22.50 (85.44%)
Average number of large basis fcns per batch ...    48.50 (83.14%)
Maximum spatial batch extension              ...  12.95, 13.23, 11.85 au
Average spatial batch extension              ...   0.63,  0.61,  0.61 au

Overlap Fitting                  UseSFitting ... on
Constructing numerical overlap ... done (      0.0 sec)
Inverting numerical overlap    ... done (      0.0 sec)
Obtaining analytic overlap     ... done (      0.0 sec)
Final contraction and storage  ... done (      0.0 sec)


General Integration Accuracy     IntAcc      ...  4.010
Radial Grid Type                 RadialGrid  ... Gauss-Chebyshev
Angular Grid (max. acc.)         AngularGrid ... Lebedev-110
Angular grid pruning method      GridPruning ... 3 (G Style)
Weight generation scheme         WeightScheme... Becke
Basis function cutoff            BFCut       ...    1.0000e-11
Integration weight cutoff        WCut        ...    1.0000e-14
Grids for H and He will be reduced by one unit

# of grid points (after initial pruning)     ...   5516 (   0.0 sec)
# of grid points (after weights+screening)   ...   5413 (   0.0 sec)
nearest neighbour list constructed           ...    0.0 sec
Grid point re-assignment to atoms done       ...    0.0 sec
Grid point division into batches done        ...    0.0 sec
Reduced shell lists constructed in    0.0 sec

Total number of grid points                  ...     5413
Total number of batches                      ...       87
Average number of points per batch           ...       62
Average number of grid points per atom       ...      902
Average number of shells per batch           ...    26.22 (69.01%)
Average number of basis functions per batch  ...    58.22 (67.70%)
Average number of large shells per batch     ...    21.78 (83.05%)
Average number of large basis fcns per batch ...    46.44 (79.77%)
Maximum spatial batch extension              ...  13.88, 13.13, 15.82 au
Average spatial batch extension              ...   0.49,  0.47,  0.53 au

Overlap Fitting                  UseSFitting ... on
Constructing numerical overlap ... done (      0.0 sec)
Inverting numerical overlap    ... done (      0.0 sec)
Obtaining analytic overlap     ... done (      0.0 sec)
Final contraction and storage  ... done (      0.0 sec)

Time for X-Grid setup             =    0.078 sec
--------------
SCF ITERATIONS
--------------
ITER       Energy         Delta-E        Max-DP      RMS-DP      [F,P]     Damp
               ***  Starting incremental Fock matrix formation  ***
  0   -152.7175762127   0.000000000000 0.04305702  0.00208211  0.3222197 0.7000
  1   -152.7939550577  -0.076378845052 0.02562756  0.00136678  0.1590215 0.7000
                               ***Turning on DIIS***
  2   -152.8255965334  -0.031641475636 0.03832053  0.00215130  0.0594935 0.0000
  3   -152.8750684051  -0.049471871724 0.01804768  0.00088666  0.0808413 0.0000
  4   -152.8850236454  -0.009955240261 0.00324667  0.00014321  0.0097801 0.0000
                      *** Initiating the SOSCF procedure ***
                           *** Shutting down DIIS ***
                      *** Re-Reading the Fockian *** 
                      *** Removing any level shift *** 
ITER      Energy       Delta-E        Grad      Rot      Max-DP    RMS-DP
  5   -152.88519274  -0.0001690921  0.000354  0.000354  0.000699  0.000035
               *** Restarting incremental Fock matrix formation ***
  6   -152.88520044  -0.0000076988  0.000151  0.000284  0.000518  0.000019
  7   -152.88520104  -0.0000006023  0.000067  0.000195  0.000318  0.000011
  8   -152.88520112  -0.0000000853  0.000051  0.000039  0.000071  0.000003
  9   -152.88520116  -0.0000000318  0.000003  0.000005  0.000008  0.000000
                 **** Energy Check signals convergence ****
              ***Rediagonalizing the Fockian in SOSCF/NRSCF***

               *****************************************************
               *                     SUCCESS                       *
               *           SCF CONVERGED AFTER  10 CYCLES          *
               *****************************************************

Setting up the final grid:

General Integration Accuracy     IntAcc      ...  5.010
Radial Grid Type                 RadialGrid  ... Gauss-Chebyshev
Angular Grid (max. acc.)         AngularGrid ... Lebedev-434
Angular grid pruning method      GridPruning ... 3 (G Style)
Weight generation scheme         WeightScheme... Becke
Basis function cutoff            BFCut       ...    1.0000e-11
Integration weight cutoff        WCut        ...    1.0000e-14
Grids for H and He will be reduced by one unit

# of grid points (after initial pruning)     ...  48452 (   0.0 sec)
# of grid points (after weights+screening)   ...  47278 (   0.0 sec)
nearest neighbour list constructed           ...    0.0 sec
Grid point re-assignment to atoms done       ...    0.0 sec
Grid point division into batches done        ...    0.2 sec
Reduced shell lists constructed in    0.3 sec

Total number of grid points                  ...    47278
Total number of batches                      ...      742
Average number of points per batch           ...       63
Average number of grid points per atom       ...     7880
Average number of shells per batch           ...    24.24 (63.78%)
Average number of basis functions per batch  ...    53.13 (61.78%)
Average number of large shells per batch     ...    19.89 (82.06%)
Average number of large basis fcns per batch ...    42.43 (79.86%)
Maximum spatial batch extension              ...  13.63, 14.02, 13.78 au
Average spatial batch extension              ...   0.26,  0.25,  0.26 au

Final grid set up in    0.3 sec
Final integration                            ... done (   0.0 sec)
Change in XC energy                          ...    -0.000196319
Integrated number of electrons               ...    20.000004315
Previous integrated no of electrons          ...    20.000012945
Old exchange energy                            =     -5.662491684 Eh
New exchange energy                            =     -5.662328604 Eh
Exchange energy change after final integration =      0.000163080 Eh
Total energy after final integration           =   -152.885234393 Eh
Final COS-X integration done in                =     0.085 sec

----------------
TOTAL SCF ENERGY
----------------

Total Energy       :         -152.88523439 Eh           -4160.21873 eV

Components:
Nuclear Repulsion  :           37.43048744 Eh            1018.53534 eV
Electronic Energy  :         -190.31572183 Eh           -5178.75407 eV

One Electron Energy:         -284.27031137 Eh           -7735.38843 eV
Two Electron Energy:           93.95458953 Eh            2556.63436 eV

Virial components:
Potential Energy   :         -305.18599386 Eh           -8304.53309 eV
Kinetic Energy     :          152.30075946 Eh            4144.31436 eV
Virial Ratio       :            2.00383764


DFT components:
N(Alpha)           :       10.000002157634 electrons
N(Beta)            :       10.000002157634 electrons
N(Total)           :       20.000004315268 electrons
E(XC)              :      -12.977844838421 Eh       

---------------
SCF CONVERGENCE
---------------

  Last Energy change         ...    2.1516e-09  Tolerance :   1.0000e-08
  Last MAX-Density change    ...    3.1173e-15  Tolerance :   1.0000e-07
  Last RMS-Density change    ...    6.4620e-17  Tolerance :   5.0000e-09
  Last Orbital Gradient      ...    1.1746e-06  Tolerance :   1.0000e-05
  Last Orbital Rotation      ...    3.6635e-06  Tolerance :   1.0000e-05

             **** THE GBW FILE WAS UPDATED (3_wB97X_GasPhase_onB3LYP_2_waters.gbw) ****
             **** DENSITY FILE WAS UPDATED (3_wB97X_GasPhase_onB3LYP_2_waters.scfp.tmp) ****
             **** ENERGY FILE WAS UPDATED (3_wB97X_GasPhase_onB3LYP_2_waters.en.tmp) ****
----------------
ORBITAL ENERGIES
----------------

  NO   OCC          E(Eh)            E(eV) 
   0   2.0000     -19.258328      -524.0457 
   1   2.0000     -19.212530      -522.7995 
   2   2.0000      -1.151387       -31.3308 
   3   2.0000      -1.105180       -30.0735 
   4   2.0000      -0.651130       -17.7182 
   5   2.0000      -0.613653       -16.6983 
   6   2.0000      -0.518840       -14.1183 
   7   2.0000      -0.478902       -13.0316 
   8   2.0000      -0.434951       -11.8356 
   9   2.0000      -0.398519       -10.8442 
  10   0.0000       0.094081         2.5601 
  11   0.0000       0.144869         3.9421 
  12   0.0000       0.174055         4.7363 
  13   0.0000       0.254538         6.9263 
  14   0.0000       0.420242        11.4354 
  15   0.0000       0.451155        12.2765 
  16   0.0000       0.464631        12.6433 
  17   0.0000       0.506102        13.7717 
  18   0.0000       0.528960        14.3937 
  19   0.0000       0.551813        15.0156 
  20   0.0000       0.563197        15.3254 
  21   0.0000       0.631043        17.1716 
  22   0.0000       0.648610        17.6496 
  23   0.0000       0.662697        18.0329 
  24   0.0000       0.799758        21.7625 
  25   0.0000       0.863424        23.4950 
  26   0.0000       1.221704        33.2443 
  27   0.0000       1.245429        33.8899 
  28   0.0000       1.298722        35.3400 
  29   0.0000       1.358195        36.9584 
  30   0.0000       1.373068        37.3631 
  31   0.0000       1.413454        38.4620 
  32   0.0000       1.622696        44.1558 
  33   0.0000       1.640495        44.6401 
  34   0.0000       1.714790        46.6618 
  35   0.0000       1.833648        49.8961 
  36   0.0000       1.850128        50.3446 
  37   0.0000       1.914098        52.0853 
  38   0.0000       2.108182        57.3666 
  39   0.0000       2.112706        57.4896 
  40   0.0000       2.148843        58.4730 
  41   0.0000       2.190412        59.6041 
  42   0.0000       2.250991        61.2526 
  43   0.0000       2.278413        61.9988 
  44   0.0000       2.381210        64.7960 
  45   0.0000       2.445163        66.5363 
  46   0.0000       2.475387        67.3587 
  47   0.0000       2.504585        68.1532 
  48   0.0000       2.655069        72.2481 
  49   0.0000       2.673515        72.7500 
  50   0.0000       2.700753        73.4912 
  51   0.0000       2.744855        74.6913 
  52   0.0000       2.778220        75.5992 
  53   0.0000       2.842128        77.3382 
  54   0.0000       2.974396        80.9374 
  55   0.0000       3.010542        81.9210 
  56   0.0000       3.736176       101.6665 
  57   0.0000       3.778375       102.8148 
  58   0.0000       3.995547       108.7244 
  59   0.0000       4.047397       110.1353 
  60   0.0000       5.173922       140.7896 
  61   0.0000       5.215018       141.9078 
  62   0.0000       5.282063       143.7322 
  63   0.0000       5.323081       144.8484 
  64   0.0000       5.441426       148.0687 
  65   0.0000       5.474159       148.9594 
  66   0.0000       5.486803       149.3035 
  67   0.0000       5.507302       149.8613 
  68   0.0000       5.519275       150.1871 
  69   0.0000       5.567792       151.5073 
  70   0.0000       6.094918       165.8511 
  71   0.0000       6.114568       166.3859 
  72   0.0000       6.270955       170.6413 
  73   0.0000       6.354598       172.9174 
  74   0.0000       6.404857       174.2850 
  75   0.0000       6.418486       174.6559 
  76   0.0000       6.456314       175.6852 
  77   0.0000       6.493211       176.6893 
  78   0.0000       6.539204       177.9408 
  79   0.0000       6.567529       178.7116 
  80   0.0000       6.954804       189.2498 
  81   0.0000       7.015475       190.9008 
  82   0.0000       7.086660       192.8378 
  83   0.0000       7.129785       194.0113 
  84   0.0000      43.362581      1179.9558 
  85   0.0000      43.412779      1181.3218 

                    ********************************
                    * MULLIKEN POPULATION ANALYSIS *
                    ********************************

-----------------------
MULLIKEN ATOMIC CHARGES
-----------------------
   0 O :   -0.660981
   1 H :    0.347180
   2 H :    0.347960
   3 O :   -0.674150
   4 H :    0.318245
   5 H :    0.321746
Sum of atomic charges:    0.0000000

--------------------------------
MULLIKEN REDUCED ORBITAL CHARGES
--------------------------------
  0 O s       :     3.811551  s :     3.811551
      pz      :     1.831098  p :     4.824461
      px      :     1.446652
      py      :     1.546711
      dz2     :     0.003503  d :     0.023686
      dxz     :     0.002985
      dyz     :     0.002812
      dx2y2   :     0.007878
      dxy     :     0.006508
      f0      :     0.000275  f :     0.001284
      f+1     :     0.000144
      f-1     :     0.000202
      f+2     :     0.000208
      f-2     :     0.000139
      f+3     :     0.000294
      f-3     :     0.000022
  1 H s       :     0.607530  s :     0.607530
      pz      :     0.015296  p :     0.045291
      px      :     0.012752
      py      :     0.017243
  2 H s       :     0.606854  s :     0.606854
      pz      :     0.015902  p :     0.045186
      px      :     0.017550
      py      :     0.011734
  3 O s       :     3.809803  s :     3.809803
      pz      :     1.619332  p :     4.841727
      px      :     1.611012
      py      :     1.611384
      dz2     :     0.000824  d :     0.021359
      dxz     :     0.002592
      dyz     :     0.007513
      dx2y2   :     0.006012
      dxy     :     0.004417
      f0      :     0.000232  f :     0.001260
      f+1     :     0.000133
      f-1     :     0.000103
      f+2     :     0.000449
      f-2     :     0.000231
      f+3     :     0.000008
      f-3     :     0.000103
  4 H s       :     0.628179  s :     0.628179
      pz      :     0.019198  p :     0.053576
      px      :     0.022018
      py      :     0.012360
  5 H s       :     0.631391  s :     0.631391
      pz      :     0.016247  p :     0.046863
      px      :     0.014005
      py      :     0.016612


                     *******************************
                     * LOEWDIN POPULATION ANALYSIS *
                     *******************************

----------------------
LOEWDIN ATOMIC CHARGES
----------------------
   0 O :   -0.285138
   1 H :    0.166393
   2 H :    0.166542
   3 O :   -0.338461
   4 H :    0.136228
   5 H :    0.154436

-------------------------------
LOEWDIN REDUCED ORBITAL CHARGES
-------------------------------
  0 O s       :     3.464420  s :     3.464420
      pz      :     1.779827  p :     4.785285
      px      :     1.441164
      py      :     1.564294
      dz2     :     0.004434  d :     0.033117
      dxz     :     0.005234
      dyz     :     0.002206
      dx2y2   :     0.011452
      dxy     :     0.009791
      f0      :     0.000363  f :     0.002316
      f+1     :     0.000108
      f-1     :     0.000285
      f+2     :     0.000366
      f-2     :     0.000186
      f+3     :     0.000731
      f-3     :     0.000276
  1 H s       :     0.675536  s :     0.675536
      pz      :     0.043507  p :     0.158071
      px      :     0.038630
      py      :     0.075934
  2 H s       :     0.675954  s :     0.675954
      pz      :     0.050736  p :     0.157505
      px      :     0.070807
      py      :     0.035961
  3 O s       :     3.464529  s :     3.464529
      pz      :     1.597454  p :     4.840372
      px      :     1.610732
      py      :     1.632186
      dz2     :     0.000490  d :     0.031233
      dxz     :     0.005802
      dyz     :     0.011931
      dx2y2   :     0.008096
      dxy     :     0.004914
      f0      :     0.000444  f :     0.002327
      f+1     :     0.000076
      f-1     :     0.000185
      f+2     :     0.000778
      f-2     :     0.000370
      f+3     :     0.000105
      f-3     :     0.000370
  4 H s       :     0.687697  s :     0.687697
      pz      :     0.057890  p :     0.176075
      px      :     0.078154
      py      :     0.040032
  5 H s       :     0.685902  s :     0.685902
      pz      :     0.054118  p :     0.159662
      px      :     0.037268
      py      :     0.068275


                      *****************************
                      * MAYER POPULATION ANALYSIS *
                      *****************************

  NA   - Mulliken gross atomic population
  ZA   - Total nuclear charge
  QA   - Mulliken gross atomic charge
  VA   - Mayer's total valence
  BVA  - Mayer's bonded valence
  FA   - Mayer's free valence

  ATOM       NA         ZA         QA         VA         BVA        FA
  0 O      8.6610     8.0000    -0.6610     1.8493     1.8493    -0.0000
  1 H      0.6528     1.0000     0.3472     0.8965     0.8965    -0.0000
  2 H      0.6520     1.0000     0.3480     0.8990     0.8990     0.0000
  3 O      8.6741     8.0000    -0.6741     1.7788     1.7788     0.0000
  4 H      0.6818     1.0000     0.3182     0.9419     0.9419     0.0000
  5 H      0.6783     1.0000     0.3217     0.9166     0.9166     0.0000

  Mayer bond orders larger than 0.1
B(  0-O ,  1-H ) :   0.8896 B(  0-O ,  2-H ) :   0.8863 B(  3-O ,  4-H ) :   0.8648 
B(  3-O ,  5-H ) :   0.9078 

-------
TIMINGS
-------

Total SCF time: 0 days 0 hours 0 min 2 sec 

Total time                  ....       2.043 sec
Sum of individual times     ....       2.136 sec  (104.6%)

Fock matrix formation       ....       1.457 sec  ( 71.3%)
  Coulomb formation         ....       1.240 sec  ( 85.1% of F)
  Split-RI-J                ....       0.648 sec  ( 44.5% of F)
  Chain of spheres X        ....       0.668 sec  ( 45.9% of F)
  XC integration            ....       0.211 sec  ( 14.5% of F)
    Basis function eval.    ....       0.045 sec  ( 21.2% of XC)
    Density eval.           ....       0.025 sec  ( 11.7% of XC)
    XC-Functional eval.     ....       0.062 sec  ( 29.2% of XC)
    XC-Potential eval.      ....       0.045 sec  ( 21.2% of XC)
Diagonalization             ....       0.009 sec  (  0.5%)
Density matrix formation    ....       0.019 sec  (  0.9%)
Population analysis         ....       0.002 sec  (  0.1%)
Initial guess               ....       0.165 sec  (  8.1%)
Orbital Transformation      ....       0.000 sec  (  0.0%)
Orbital Orthonormalization  ....       0.000 sec  (  0.0%)
DIIS solution               ....       0.002 sec  (  0.1%)
SOSCF solution              ....       0.050 sec  (  2.4%)
Grid generation             ....       0.432 sec  ( 21.2%)
           ************************************************************
           *              Shut down parallel processing               *
           ************************************************************

Entering the calculation of the dispersion correction...

Checking the input atom types...

Done


-------------------------------------------------------------------------------
                          DFT DISPERSION CORRECTION                            
                                                                               
                                DFTD3 V2.1  Rev 6                               
                              USING zero damping                               
-------------------------------------------------------------------------------
The omegaB97X-D3 functional is recognized. Fit by Chai et al.
Active option DFTDOPT                   ...         3   

molecular C6(AA) [au] = 178.126970 


            DFT-D V3
 parameters
 s6 scaling factor         :     1.0000 
 rs6 scaling factor        :     1.2810 
 s8 scaling factor         :     1.0000 
 rs8 scaling factor        :     1.0940 
 Damping factor alpha6     :    14.0000 
 Damping factor alpha8     :    16.0000 
 ad hoc parameters k1-k3   :    16.0000     1.3333    -4.0000 

 Edisp/kcal,au: -0.344562125608  -0.000549094640 
 E6   /kcal   :  -0.134551401 
 E8   /kcal   :  -0.210010725 
 % E8         :  60.950031633 

-------------------------   ----------------
Dispersion correction           -0.000549095
-------------------------   ----------------


-------------------------   --------------------
FINAL SINGLE POINT ENERGY      -152.885783487544
-------------------------   --------------------


                            ***************************************
                            *     ORCA property calculations      *
                            ***************************************

                                    ---------------------
                                    Active property flags
                                    ---------------------
   (+) Dipole Moment


------------------------------------------------------------------------------
                       ORCA ELECTRIC PROPERTIES CALCULATION
------------------------------------------------------------------------------

Dipole Moment Calculation                       ... on
Quadrupole Moment Calculation                   ... off
Polarizability Calculation                      ... off
GBWName                                         ... 3_wB97X_GasPhase_onB3LYP_2_waters.gbw
Electron density file                           ... 3_wB97X_GasPhase_onB3LYP_2_waters.scfp.tmp

-------------
DIPOLE MOMENT
-------------
                                X             Y             Z
Electronic contribution:      0.09534      -0.00460      -0.12265
Nuclear contribution   :      0.12770       0.04668      -0.13671
                        -----------------------------------------
Total Dipole Moment    :      0.22304       0.04208      -0.25936
                        -----------------------------------------
Magnitude (a.u.)       :      0.34466
Magnitude (Debye)      :      0.87605

smp-n80.crc.pitt.edu.22897hfi_wait_for_device: The /dev/hfi1_0 device failed to appear after 15.0 seconds: Connection timed out
smp-n80.crc.pitt.edu.22899hfi_wait_for_device: The /dev/hfi1_0 device failed to appear after 15.0 seconds: Connection timed out
smp-n80.crc.pitt.edu.22896hfi_wait_for_device: The /dev/hfi1_0 device failed to appear after 15.0 seconds: Connection timed out
smp-n80.crc.pitt.edu.22898hfi_wait_for_device: The /dev/hfi1_0 device failed to appear after 15.0 seconds: Connection timed out
smp-n80.crc.pitt.edu.22906hfi_wait_for_device: The /dev/hfi1_0 device failed to appear after 15.0 seconds: Connection timed out
smp-n80.crc.pitt.edu.22902hfi_wait_for_device: The /dev/hfi1_0 device failed to appear after 15.0 seconds: Connection timed out
smp-n80.crc.pitt.edu.22904hfi_wait_for_device: The /dev/hfi1_0 device failed to appear after 15.0 seconds: Connection timed out
smp-n80.crc.pitt.edu.22905hfi_wait_for_device: The /dev/hfi1_0 device failed to appear after 15.0 seconds: Connection timed out
smp-n80.crc.pitt.edu.22907hfi_wait_for_device: The /dev/hfi1_0 device failed to appear after 15.0 seconds: Connection timed out
smp-n80.crc.pitt.edu.22903hfi_wait_for_device: The /dev/hfi1_0 device failed to appear after 15.0 seconds: Connection timed out
smp-n80.crc.pitt.edu.22900hfi_wait_for_device: The /dev/hfi1_0 device failed to appear after 15.0 seconds: Connection timed out
smp-n80.crc.pitt.edu.22901hfi_wait_for_device: The /dev/hfi1_0 device failed to appear after 15.0 seconds: Connection timed out

Timings for individual modules:

Sum of individual times         ...       33.025 sec (=   0.550 min)
GTO integral calculation        ...       15.472 sec (=   0.258 min)  46.8 %
SCF iterations                  ...       17.553 sec (=   0.293 min)  53.2 %
                             ****ORCA TERMINATED NORMALLY****
TOTAL RUN TIME: 0 days 0 hours 0 minutes 48 seconds 468 msec
cp: cannot stat ‘/scratch/slurm-1321660/*.{prop}’: No such file or directory
