
                                 *****************
                                 * O   R   C   A *
                                 *****************

           --- An Ab Initio, DFT and Semiempirical electronic structure package ---

                  #######################################################
                  #                        -***-                        #
                  #  Department of molecular theory and spectroscopy    #
                  #              Directorship: Frank Neese              #
                  # Max Planck Institute for Chemical Energy Conversion #
                  #                  D-45470 Muelheim/Ruhr              #
                  #                       Germany                       #
                  #                                                     #
                  #                  All rights reserved                #
                  #                        -***-                        #
                  #######################################################


                         Program Version 3.0.3 - RELEASE   -


 With contributions from (in alphabetic order):
   Ute Becker             : Parallelization
   Dmytro Bykov           : SCF Hessian
   Dmitry Ganyushin       : Spin-Orbit,Spin-Spin,Magnetic field MRCI
   Andreas Hansen         : Spin unrestricted coupled pair/coupled cluster methods
   Dimitrios Liakos       : Extrapolation schemes; parallel MDCI
   Robert Izsak           : Overlap fitted RIJCOSX, COSX-SCS-MP3
   Christian Kollmar      : KDIIS, OOCD, Brueckner-CCSD(T), CCSD density
   Simone Kossmann        : Meta GGA functionals, TD-DFT gradient, OOMP2, MP2 Hessian
   Taras Petrenko         : DFT Hessian,TD-DFT gradient, ASA and ECA modules, normal mode analysis, Resonance Raman, ABS, FL, XAS/XES, NRVS
   Christoph Reimann      : Effective Core Potentials
   Michael Roemelt        : Restricted open shell CIS
   Christoph Riplinger    : Improved optimizer, TS searches, QM/MM, DLPNO-CCSD
   Barbara Sandhoefer     : DKH picture change effects
   Igor Schapiro          : Molecular dynamics
   Kantharuban Sivalingam : CASSCF convergence, NEVPT2
   Boris Wezisla          : Elementary symmetry handling
   Frank Wennmohs         : Technical directorship


 We gratefully acknowledge several colleagues who have allowed us to
 interface, adapt or use parts of their codes:
   Stefan Grimme, W. Hujo, H. Kruse, T. Risthaus : VdW corrections, initial TS optimization,
                                                   DFT functionals, gCP
   Ed Valeev                                     : LibInt (2-el integral package), F12 methods
   Garnet Chan, S. Sharma, R. Olivares           : DMRG
   Ulf Ekstrom                                   : XCFun DFT Library
   Mihaly Kallay                                 : mrcc  (arbitrary order and MRCC methods)
   Andreas Klamt, Michael Diedenhofen            : otool_cosmo (COSMO solvation model)
   Frank Weinhold                                : gennbo (NPA and NBO analysis)
   Christopher J. Cramer and Donald G. Truhlar   : smd solvation model


 Your calculation uses the libint2 library for the computation of 2-el integrals
 For citations please refer to: http://libint.valeyev.net

 This ORCA versions uses:
   CBLAS   interface :  Fast vector & matrix operations
   LAPACKE interface :  Fast linear algebra routines
   SCALAPACK package :  Parallel linear algebra routines


Your calculation utilizes the basis: Ahlrichs-TZV
Cite in your paper:
H - Kr: A. Schaefer, H. Horn and R. Ahlrichs, J. Chem. Phys. 97, 2571 (1992).

The def2-TZV basis will be loaded
Cite in your paper:
 	F. Weigend, R. Ahlrichs, Phys. Chem. Chem. Phys. 2005, 7, 3297.

Your calculation utilizes the atom-pairwise dispersion correction
with the Becke-Johnson damping scheme (D3BJ)
Cite in your paper:
S.Grimme, S.Ehrlich, L.Goerigk, J Comput Chem, (2011), 32, 1456–1465 
S.Grimme, J.Antony, S.Ehrlich and H.Krieg, J.Chem.Phys., 132, (2010), 154104 
   

================================================================================
                                        WARNINGS
                       Please study these warnings very carefully!
================================================================================
Now building the actual basis set


INFO   : the flag for use of LIBINT has been found!

================================================================================
                                       INPUT FILE
================================================================================
NAME = 3_B3LYP_SMD_onB3LYP_SMD_2_waters.inp
|  1> ! B3LYP Def2-TZVP def2-TZVP/J RIJCOSX TightSCF Grid4 D3BJ COSMO
|  2> 
|  3> %pal nprocs 12 end
|  4> 
|  5> %scf
|  6>         maxiter 400
|  7> end
|  8> 
|  9> %cosmo
| 10>         SMD true
| 11>         solvent "WATER"
| 12> end
| 13> 
| 14> * xyz  0  1
| 15> O  0.860831	-0.127842	-0.930763
| 16> H  1.296388	0.739539	-0.960785
| 17> H  0.158869	-0.036338	-1.595968
| 18> O  -0.808401	0.114159	1.314382
| 19> H  -0.188220	0.026928	0.557695
| 20> H  -1.172620	-0.780766	1.389917
| 21> **                         ****END OF INPUT****
================================================================================

                       ****************************
                       * Single Point Calculation *
                       ****************************

---------------------------------
CARTESIAN COORDINATES (ANGSTROEM)
---------------------------------
  O      0.860831   -0.127842   -0.930763
  H      1.296388    0.739539   -0.960785
  H      0.158869   -0.036338   -1.595968
  O     -0.808401    0.114159    1.314382
  H     -0.188220    0.026928    0.557695
  H     -1.172620   -0.780766    1.389917

----------------------------
CARTESIAN COORDINATES (A.U.)
----------------------------
  NO LB      ZA    FRAG    MASS        X           Y           Z
   0 O     8.0000    0    15.999          1.626734837589565         -0.241586368412761         -1.758887165586946
   1 H     1.0000    0     1.008          2.449818283301904          1.397526175353988         -1.815620523579530
   2 H     1.0000    0     1.008          0.300218901169935         -0.068668868254430         -3.015942438502032
   3 O     8.0000    0    15.999         -1.527656496388074          0.215729245722316          2.483822015355682
   4 H     1.0000    0     1.008         -0.355684252926658          0.050886545334231          1.053890816257212
   5 H     1.0000    0     1.008         -2.215930659158738         -1.475433914677160          2.626562478881425

--------------------------------
INTERNAL COORDINATES (ANGSTROEM)
--------------------------------
 O      0   0   0   0.000000     0.000     0.000
 H      1   0   0   0.971062     0.000     0.000
 H      1   2   0   0.971402   102.639     0.000
 O      1   2   3   2.808127   102.378   260.535
 H      4   1   2   0.982247     2.702   287.139
 H      4   1   2   0.969150   101.896   185.354

---------------------------
INTERNAL COORDINATES (A.U.)
---------------------------
 O      0   0   0   0.000000     0.000     0.000
 H      1   0   0   1.835041     0.000     0.000
 H      1   2   0   1.835683   102.639     0.000
 O      1   2   3   5.306591   102.378   260.535
 H      4   1   2   1.856178     2.702   287.139
 H      4   1   2   1.831428   101.896   185.354

---------------------
BASIS SET INFORMATION
---------------------
There are 2 groups of distinct atoms

 Group   1 Type O   : 11s6p2d1f contracted to 5s3p2d1f pattern {62111/411/11/1}
 Group   2 Type H   : 5s1p contracted to 3s1p pattern {311/1}

Atom   0O    basis set group =>   1
Atom   1H    basis set group =>   2
Atom   2H    basis set group =>   2
Atom   3O    basis set group =>   1
Atom   4H    basis set group =>   2
Atom   5H    basis set group =>   2
-------------------------------
AUXILIARY BASIS SET INFORMATION
-------------------------------
There are 2 groups of distinct atoms

 Group   1 Type O   : 12s5p4d2f1g contracted to 6s4p3d1f1g pattern {711111/2111/211/2/1}
 Group   2 Type H   : 5s2p1d contracted to 3s1p1d pattern {311/2/1}

Atom   0O    basis set group =>   1
Atom   1H    basis set group =>   2
Atom   2H    basis set group =>   2
Atom   3O    basis set group =>   1
Atom   4H    basis set group =>   2
Atom   5H    basis set group =>   2
smp-n52.crc.pitt.edu.109993hfi_wait_for_device: The /dev/hfi1_0 device failed to appear after 15.0 seconds: Connection timed out
smp-n52.crc.pitt.edu.109994hfi_wait_for_device: The /dev/hfi1_0 device failed to appear after 15.0 seconds: Connection timed out
smp-n52.crc.pitt.edu.109995hfi_wait_for_device: The /dev/hfi1_0 device failed to appear after 15.0 seconds: Connection timed out
smp-n52.crc.pitt.edu.110000hfi_wait_for_device: The /dev/hfi1_0 device failed to appear after 15.0 seconds: Connection timed out
smp-n52.crc.pitt.edu.110004hfi_wait_for_device: The /dev/hfi1_0 device failed to appear after 15.0 seconds: Connection timed out
smp-n52.crc.pitt.edu.109997hfi_wait_for_device: The /dev/hfi1_0 device failed to appear after 15.0 seconds: Connection timed out
smp-n52.crc.pitt.edu.110002hfi_wait_for_device: The /dev/hfi1_0 device failed to appear after 15.0 seconds: Connection timed out
smp-n52.crc.pitt.edu.110008hfi_wait_for_device: The /dev/hfi1_0 device failed to appear after 15.0 seconds: Connection timed out
smp-n52.crc.pitt.edu.110011hfi_wait_for_device: The /dev/hfi1_0 device failed to appear after 15.0 seconds: Connection timed out
smp-n52.crc.pitt.edu.110006hfi_wait_for_device: The /dev/hfi1_0 device failed to appear after 15.0 seconds: Connection timed out
smp-n52.crc.pitt.edu.109996hfi_wait_for_device: The /dev/hfi1_0 device failed to appear after 15.0 seconds: Connection timed out
smp-n52.crc.pitt.edu.109998hfi_wait_for_device: The /dev/hfi1_0 device failed to appear after 15.0 seconds: Connection timed out


           ************************************************************
           *        Program running with 12 parallel MPI-processes    *
           *              working on a common directory               *
           ************************************************************
------------------------------------------------------------------------------
                           ORCA GTO INTEGRAL CALCULATION
                           -- RI-GTO INTEGRALS CHOSEN --
------------------------------------------------------------------------------

                         BASIS SET STATISTICS AND STARTUP INFO

Gaussian basis set:
 # of primitive gaussian shells          ...   64
 # of primitive gaussian functions       ...  124
 # of contracted shells                  ...   38
 # of contracted basis functions         ...   86
 Highest angular momentum                ...    3
 Maximum contraction depth               ...    6
Auxiliary gaussian basis set:
 # of primitive gaussian shells          ...   80
 # of primitive gaussian functions       ...  204
 # of contracted shells                  ...   50
 # of contracted aux-basis functions     ...  142
 Highest angular momentum                ...    4
 Maximum contraction depth               ...    7
Ratio of auxiliary to basis functions    ...  1.65
Integral package used                  ... LIBINT
 One Electron integrals                  ... done
 Ordering auxiliary basis shells         ... done
 Integral threshhold             Thresh  ...  2.500e-11
 Primitive cut-off               TCut    ...  2.500e-12
 Pre-screening matrix                    ... done
 Shell pair data                         ... 
 Ordering of the shell pairs             ... done (   0.000 sec) 718 of 741 pairs
 Determination of significant pairs      ... done (   0.000 sec)
 Creation of shell pair data             ... done (   0.000 sec)
 Storage of shell pair data              ... done (   0.000 sec)
 Shell pair data done in (   0.000 sec)
 Computing two index integrals           ... done
 Cholesky decomposition of the V-matrix  ... done


Timings:
 Total evaluation time                   ...   0.100 sec (  0.002 min)
 One electron matrix time                ...   0.005 sec (  0.000 min) =  4.5%
 Schwartz matrix evaluation time         ...   0.073 sec (  0.001 min) = 73.5%
 Two index repulsion integral time       ...   0.007 sec (  0.000 min) =  7.1%
 Cholesky decomposition of V             ...   0.000 sec (  0.000 min) =  0.4%
 Three index repulsion integral time     ...   0.000 sec (  0.000 min) =  0.0%

           ************************************************************
           *              Shut down parallel processing               *
           ************************************************************
smp-n52.crc.pitt.edu.110019hfi_wait_for_device: The /dev/hfi1_0 device failed to appear after 15.0 seconds: Connection timed out
smp-n52.crc.pitt.edu.110020hfi_wait_for_device: The /dev/hfi1_0 device failed to appear after 15.0 seconds: Connection timed out
smp-n52.crc.pitt.edu.110021hfi_wait_for_device: The /dev/hfi1_0 device failed to appear after 15.0 seconds: Connection timed out
smp-n52.crc.pitt.edu.110022hfi_wait_for_device: The /dev/hfi1_0 device failed to appear after 15.0 seconds: Connection timed out
smp-n52.crc.pitt.edu.110023hfi_wait_for_device: The /dev/hfi1_0 device failed to appear after 15.0 seconds: Connection timed out
smp-n52.crc.pitt.edu.110024hfi_wait_for_device: The /dev/hfi1_0 device failed to appear after 15.0 seconds: Connection timed out
smp-n52.crc.pitt.edu.110026hfi_wait_for_device: The /dev/hfi1_0 device failed to appear after 15.0 seconds: Connection timed out
smp-n52.crc.pitt.edu.110030hfi_wait_for_device: The /dev/hfi1_0 device failed to appear after 15.0 seconds: Connection timed out
smp-n52.crc.pitt.edu.110028hfi_wait_for_device: The /dev/hfi1_0 device failed to appear after 15.0 seconds: Connection timed out
smp-n52.crc.pitt.edu.110032hfi_wait_for_device: The /dev/hfi1_0 device failed to appear after 15.0 seconds: Connection timed out
smp-n52.crc.pitt.edu.110034hfi_wait_for_device: The /dev/hfi1_0 device failed to appear after 15.0 seconds: Connection timed out
smp-n52.crc.pitt.edu.110036hfi_wait_for_device: The /dev/hfi1_0 device failed to appear after 15.0 seconds: Connection timed out


           ************************************************************
           *        Program running with 12 parallel MPI-processes    *
           *              working on a common directory               *
           ************************************************************
-------------------------------------------------------------------------------
                                 ORCA SCF
-------------------------------------------------------------------------------

------------
SCF SETTINGS
------------
Hamiltonian:
 Density Functional     Method          .... DFT(GTOs)
 Exchange Functional    Exchange        .... B88
   X-Alpha parameter    XAlpha          ....  0.666667
   Becke's b parameter  XBeta           ....  0.004200
 Correlation Functional Correlation     .... LYP
 LDA part of GGA corr.  LDAOpt          .... VWN-5
 Gradients option       PostSCFGGA      .... off
 Hybrid DFT is turned on
   Fraction HF Exchange ScalHFX         ....  0.200000
   Scaling of DF-GGA-X  ScalDFX         ....  0.720000
   Scaling of DF-GGA-C  ScalDFC         ....  0.810000
   Scaling of DF-LDA-C  ScalLDAC        ....  1.000000
   Perturbative correction              ....  0.000000
   NL short-range parameter             ....  4.800000
 RI-approximation to the Coulomb term is turned on
   Number of auxiliary basis functions  .... 142
   RIJ-COSX (HFX calculated with COS-X)).... on


General Settings:
 Integral files         IntName         .... 3_B3LYP_SMD_onB3LYP_SMD_2_waters
 Hartree-Fock type      HFTyp           .... RHF
 Total Charge           Charge          ....    0
 Multiplicity           Mult            ....    1
 Number of Electrons    NEL             ....   20
 Basis Dimension        Dim             ....   86
 Nuclear Repulsion      ENuc            ....     37.3076875972 Eh

Convergence Acceleration:
 DIIS                   CNVDIIS         .... on
   Start iteration      DIISMaxIt       ....    12
   Startup error        DIISStart       ....  0.200000
   # of expansion vecs  DIISMaxEq       ....     5
   Bias factor          DIISBfac        ....   1.050
   Max. coefficient     DIISMaxC        ....  10.000
 Newton-Raphson         CNVNR           .... off
 SOSCF                  CNVSOSCF        .... on
   Start iteration      SOSCFMaxIt      ....   150
   Startup grad/error   SOSCFStart      ....  0.003300
 Level Shifting         CNVShift        .... on
   Level shift para.    LevelShift      ....    0.2500
   Turn off err/grad.   ShiftErr        ....    0.0010
 Zerner damping         CNVZerner       .... off
 Static damping         CNVDamp         .... on
   Fraction old density DampFac         ....    0.7000
   Max. Damping (<1)    DampMax         ....    0.9800
   Min. Damping (>=0)   DampMin         ....    0.0000
   Turn off err/grad.   DampErr         ....    0.1000
 Fernandez-Rico         CNVRico         .... off

SCF Procedure:
 Maximum # iterations   MaxIter         ....   400
 SCF integral mode      SCFMode         .... Direct
   Integral package                     .... LIBINT
 Reset frequeny         DirectResetFreq ....    20
 Integral Threshold     Thresh          ....  2.500e-11 Eh
 Primitive CutOff       TCut            ....  2.500e-12 Eh

Convergence Tolerance:
 Convergence Check Mode ConvCheckMode   .... Total+1el-Energy
 Energy Change          TolE            ....  1.000e-08 Eh
 1-El. energy change                    ....  1.000e-05 Eh
 Orbital Gradient       TolG            ....  1.000e-05
 Orbital Rotation angle TolX            ....  1.000e-05
 DIIS Error             TolErr          ....  5.000e-07


Diagonalization of the overlap matrix:
Smallest eigenvalue                        ... 5.165e-03
Time for diagonalization                   ...    0.001 sec
Threshold for overlap eigenvalues          ... 1.000e-08
Number of eigenvalues below threshold      ... 0
Time for construction of square roots      ...    0.000 sec
Total time needed                          ...    0.002 sec

-------------------
DFT GRID GENERATION
-------------------

General Integration Accuracy     IntAcc      ...  4.670
Radial Grid Type                 RadialGrid  ... Gauss-Chebyshev
Angular Grid (max. acc.)         AngularGrid ... Lebedev-302
Angular grid pruning method      GridPruning ... 3 (G Style)
Weight generation scheme         WeightScheme... Becke
Basis function cutoff            BFCut       ...    1.0000e-11
Integration weight cutoff        WCut        ...    1.0000e-14
Grids for H and He will be reduced by one unit

# of grid points (after initial pruning)     ...  26000 (   0.0 sec)
# of grid points (after weights+screening)   ...  25389 (   0.0 sec)
nearest neighbour list constructed           ...    0.0 sec
Grid point re-assignment to atoms done       ...    0.0 sec
Grid point division into batches done        ...    0.1 sec
Reduced shell lists constructed in    0.1 sec

Total number of grid points                  ...    25389
Total number of batches                      ...      400
Average number of points per batch           ...       63
Average number of grid points per atom       ...     4232
Average number of shells per batch           ...    26.57 (69.92%)
Average number of basis functions per batch  ...    58.80 (68.37%)
Average number of large shells per batch     ...    22.20 (83.55%)
Average number of large basis fcns per batch ...    48.43 (82.36%)
Maximum spatial batch extension              ...  11.86, 14.97, 13.70 au
Average spatial batch extension              ...   0.26,  0.27,  0.27 au

Time for grid setup =    0.085 sec

------------------------------
INITIAL GUESS: MODEL POTENTIAL
------------------------------
Loading Hartree-Fock densities                     ... done
Calculating cut-offs                               ... done
Setting up the integral package                    ... done
Initializing the effective Hamiltonian             ... done
Starting the Coulomb interaction                   ... done (   0.0 sec)
Reading the grid                                   ... done
Mapping shells                                     ... done
Starting the XC term evaluation                    ... done (   0.0 sec)
  promolecular density results
     # of electrons  =     19.998019070
     EX              =    -17.564627379
     EC              =     -0.675485991
     EX+EC           =    -18.240113370
Transforming the Hamiltonian                       ... done (   0.0 sec)
Diagonalizing the Hamiltonian                      ... done (   0.0 sec)
Back transforming the eigenvectors                 ... done (   0.0 sec)
Now organizing SCF variables                       ... done
                      ------------------
                      INITIAL GUESS DONE (   0.2 sec)
                      ------------------
--------------------
COSX GRID GENERATION
--------------------

General Integration Accuracy     IntAcc      ...  3.340
Radial Grid Type                 RadialGrid  ... Gauss-Chebyshev
Angular Grid (max. acc.)         AngularGrid ... Lebedev-50
Angular grid pruning method      GridPruning ... 3 (G Style)
Weight generation scheme         WeightScheme... Becke
Basis function cutoff            BFCut       ...    1.0000e-11
Integration weight cutoff        WCut        ...    1.0000e-14
Grids for H and He will be reduced by one unit

# of grid points (after initial pruning)     ...   2440 (   0.0 sec)
# of grid points (after weights+screening)   ...   2380 (   0.0 sec)
nearest neighbour list constructed           ...    0.0 sec
Grid point re-assignment to atoms done       ...    0.0 sec
Grid point division into batches done        ...    0.0 sec
Reduced shell lists constructed in    0.0 sec

Total number of grid points                  ...     2380
Total number of batches                      ...       40
Average number of points per batch           ...       59
Average number of grid points per atom       ...      397
Average number of shells per batch           ...    25.60 (67.37%)
Average number of basis functions per batch  ...    57.20 (66.51%)
Average number of large shells per batch     ...    22.00 (85.94%)
Average number of large basis fcns per batch ...    46.80 (81.82%)
Maximum spatial batch extension              ...  11.69, 10.48, 16.92 au
Average spatial batch extension              ...   0.50,  0.48,  0.63 au

Overlap Fitting                  UseSFitting ... on
Constructing numerical overlap ... done (      0.0 sec)
Inverting numerical overlap    ... done (      0.0 sec)
Obtaining analytic overlap     ... done (      0.0 sec)
Final contraction and storage  ... done (      0.0 sec)


General Integration Accuracy     IntAcc      ...  3.670
Radial Grid Type                 RadialGrid  ... Gauss-Chebyshev
Angular Grid (max. acc.)         AngularGrid ... Lebedev-50
Angular grid pruning method      GridPruning ... 3 (G Style)
Weight generation scheme         WeightScheme... Becke
Basis function cutoff            BFCut       ...    1.0000e-11
Integration weight cutoff        WCut        ...    1.0000e-14
Grids for H and He will be reduced by one unit

# of grid points (after initial pruning)     ...   3204 (   0.0 sec)
# of grid points (after weights+screening)   ...   3123 (   0.0 sec)
nearest neighbour list constructed           ...    0.0 sec
Grid point re-assignment to atoms done       ...    0.0 sec
Grid point division into batches done        ...    0.0 sec
Reduced shell lists constructed in    0.0 sec

Total number of grid points                  ...     3123
Total number of batches                      ...       52
Average number of points per batch           ...       60
Average number of grid points per atom       ...      520
Average number of shells per batch           ...    26.67 (70.18%)
Average number of basis functions per batch  ...    60.00 (69.77%)
Average number of large shells per batch     ...    22.50 (84.38%)
Average number of large basis fcns per batch ...    48.17 (80.28%)
Maximum spatial batch extension              ...  11.34, 11.77, 18.51 au
Average spatial batch extension              ...   0.49,  0.56,  0.60 au

Overlap Fitting                  UseSFitting ... on
Constructing numerical overlap ... done (      0.0 sec)
Inverting numerical overlap    ... done (      0.0 sec)
Obtaining analytic overlap     ... done (      0.0 sec)
Final contraction and storage  ... done (      0.0 sec)


General Integration Accuracy     IntAcc      ...  4.010
Radial Grid Type                 RadialGrid  ... Gauss-Chebyshev
Angular Grid (max. acc.)         AngularGrid ... Lebedev-110
Angular grid pruning method      GridPruning ... 3 (G Style)
Weight generation scheme         WeightScheme... Becke
Basis function cutoff            BFCut       ...    1.0000e-11
Integration weight cutoff        WCut        ...    1.0000e-14
Grids for H and He will be reduced by one unit

# of grid points (after initial pruning)     ...   5516 (   0.0 sec)
# of grid points (after weights+screening)   ...   5397 (   0.0 sec)
nearest neighbour list constructed           ...    0.0 sec
Grid point re-assignment to atoms done       ...    0.0 sec
Grid point division into batches done        ...    0.0 sec
Reduced shell lists constructed in    0.0 sec

Total number of grid points                  ...     5397
Total number of batches                      ...       88
Average number of points per batch           ...       61
Average number of grid points per atom       ...      900
Average number of shells per batch           ...    26.89 (70.76%)
Average number of basis functions per batch  ...    60.00 (69.77%)
Average number of large shells per batch     ...    22.56 (83.88%)
Average number of large basis fcns per batch ...    48.78 (81.30%)
Maximum spatial batch extension              ...  12.14, 13.46, 19.83 au
Average spatial batch extension              ...   0.43,  0.47,  0.53 au

Overlap Fitting                  UseSFitting ... on
Constructing numerical overlap ... done (      0.0 sec)
Inverting numerical overlap    ... done (      0.0 sec)
Obtaining analytic overlap     ... done (      0.0 sec)
Final contraction and storage  ... done (      0.0 sec)

Time for X-Grid setup             =    0.081 sec

--------------------
COSMO INITIALIZATION
--------------------

Epsilon                                      ...   78.3550
Refractive Index                             ...    1.3300
Potential Evaluation                         ...  ANALYTIC
Technical COSMO parameters:
  rsolv                                      ...    1.3000
  routf                                      ...    0.8500
  disex                                      ...   10.0000
  nppa                                       ... 1082   
  nspa                                       ...   92   
Solvent:                                     ... WATER
Solvent:                                     ... WATER
SMD-CDS solvent descriptors:
  Soln                                       ...    1.3328
  Soln25                                     ...    1.3323
  Sola                                       ...    0.0000
  Solb                                       ...    0.0000
  Solg                                       ...    0.0000
  Solc                                       ...    0.0000
  Solh                                       ...    0.0000
Radii:
 Radius for O  used is    2.8724 Bohr (=   1.5200 Ang.)
 Radius for H  used is    2.2677 Bohr (=   1.2000 Ang.)
Initializing COSMO package            ... done
Setting COSMO radii                   ... done
Setting atoms and making cavity       ...  USING 1082 GRID
done
Cholesky decomposition of A           ... done
--------------
SCF ITERATIONS
--------------
ITER       Energy         Delta-E        Max-DP      RMS-DP      [F,P]     Damp
               ***  Starting incremental Fock matrix formation  ***
  0   -152.7101263083   0.000000000000 0.05164022  0.00258099  0.3403088 0.7000
  1   -152.7982804035  -0.088154095150 0.02841104  0.00150614  0.1379542 0.7000
                               ***Turning on DIIS***
  2   -152.8261595640  -0.027879160517 0.02778007  0.00166548  0.0283161 0.0000
  3   -152.8768201802  -0.050660616153 0.01782035  0.00087833  0.0781010 0.0000
  4   -152.8859278602  -0.009107680016 0.00447943  0.00023621  0.0151742 0.0000
                      *** Initiating the SOSCF procedure ***
                           *** Shutting down DIIS ***
                      *** Re-Reading the Fockian *** 
                      *** Removing any level shift *** 
ITER      Energy       Delta-E        Grad      Rot      Max-DP    RMS-DP
  5   -152.88632431  -0.0003964482  0.000593  0.000593  0.001309  0.000066
               *** Restarting incremental Fock matrix formation ***
  6   -152.88633921  -0.0000149050  0.000258  0.000549  0.000764  0.000038
  7   -152.88633954  -0.0000003301  0.000322  0.000146  0.000233  0.000011
  8   -152.88634041  -0.0000008678  0.000038  0.000060  0.000097  0.000005
  9   -152.88634042  -0.0000000117  0.000010  0.000011  0.000015  0.000001
 10   -152.88634042  -0.0000000004  0.000011  0.000005  0.000011  0.000001
                 **** Energy Check signals convergence ****
              ***Rediagonalizing the Fockian in SOSCF/NRSCF***

               *****************************************************
               *                     SUCCESS                       *
               *           SCF CONVERGED AFTER  11 CYCLES          *
               *****************************************************

Setting up the final grid:

General Integration Accuracy     IntAcc      ...  5.010
Radial Grid Type                 RadialGrid  ... Gauss-Chebyshev
Angular Grid (max. acc.)         AngularGrid ... Lebedev-434
Angular grid pruning method      GridPruning ... 3 (G Style)
Weight generation scheme         WeightScheme... Becke
Basis function cutoff            BFCut       ...    1.0000e-11
Integration weight cutoff        WCut        ...    1.0000e-14
Grids for H and He will be reduced by one unit

# of grid points (after initial pruning)     ...  48452 (   0.0 sec)
# of grid points (after weights+screening)   ...  47279 (   0.0 sec)
nearest neighbour list constructed           ...    0.0 sec
Grid point re-assignment to atoms done       ...    0.0 sec
Grid point division into batches done        ...    0.2 sec
Reduced shell lists constructed in    0.3 sec

Total number of grid points                  ...    47279
Total number of batches                      ...      741
Average number of points per batch           ...       63
Average number of grid points per atom       ...     7880
Average number of shells per batch           ...    26.16 (68.84%)
Average number of basis functions per batch  ...    57.90 (67.33%)
Average number of large shells per batch     ...    21.68 (82.89%)
Average number of large basis fcns per batch ...    46.70 (80.65%)
Maximum spatial batch extension              ...  11.38, 13.12, 12.34 au
Average spatial batch extension              ...   0.22,  0.20,  0.22 au

Final grid set up in    0.3 sec
Final integration                            ... done (   0.0 sec)
Change in XC energy                          ...    -0.000009428
Integrated number of electrons               ...    20.000000524
Previous integrated no of electrons          ...    19.999974334
Old exchange energy                            =     -3.571045252 Eh
New exchange energy                            =     -3.570901885 Eh
Exchange energy change after final integration =      0.000143367 Eh
Total energy after final integration           =   -152.886206485 Eh
Final COS-X integration done in                =     0.069 sec
  0.308931485498163       -1.54358905190968      -0.892393788813287     
  1.738567574088248E-003  0.160998203331324       1.079867686790512E-002
Total Energy after outlying charge correction =   -152.888751979 Eh

SMD CDS free energy correction energy :                 0.00000     Kcal/mol
Total Energy after SMD CDS correction =              -152.886206485 Eh

----------------
TOTAL SCF ENERGY
----------------

Total Energy       :         -152.88620648 Eh           -4160.24518 eV
Total Energy       :         -152.88620648 Eh           -4160.24518 eV
COSMO(ediel)       :           -0.03136475 Eh              -0.85348 eV

Components:
Nuclear Repulsion  :           37.30768760 Eh            1015.19379 eV
Electronic Energy  :         -190.19389408 Eh           -5175.43897 eV

One Electron Energy:         -284.14796962 Eh           -7732.05934 eV
Two Electron Energy:           93.95407554 Eh            2556.62037 eV

Virial components:
Potential Energy   :         -305.13891388 Eh           -8303.25198 eV
Kinetic Energy     :          152.25270740 Eh            4143.00679 eV
Virial Ratio       :            2.00416084


DFT components:
N(Alpha)           :       10.000000262152 electrons
N(Beta)            :       10.000000262152 electrons
N(Total)           :       20.000000524304 electrons
E(X)               :      -14.228513128233 Eh       
E(C)               :       -0.808043402612 Eh       
E(XC)              :      -15.036556530845 Eh       

---------------
SCF CONVERGENCE
---------------

  Last Energy change         ...   -2.3849e-10  Tolerance :   1.0000e-08
  Last MAX-Density change    ...    1.0093e-14  Tolerance :   1.0000e-07
  Last RMS-Density change    ...    1.7217e-16  Tolerance :   5.0000e-09
  Last Orbital Gradient      ...    8.7069e-07  Tolerance :   1.0000e-05
  Last Orbital Rotation      ...    1.8019e-06  Tolerance :   1.0000e-05

             **** THE GBW FILE WAS UPDATED (3_B3LYP_SMD_onB3LYP_SMD_2_waters.gbw) ****
             **** DENSITY FILE WAS UPDATED (3_B3LYP_SMD_onB3LYP_SMD_2_waters.scfp.tmp) ****
             **** ENERGY FILE WAS UPDATED (3_B3LYP_SMD_onB3LYP_SMD_2_waters.en.tmp) ****
----------------
ORBITAL ENERGIES
----------------

  NO   OCC          E(Eh)            E(eV) 
   0   2.0000     -19.138243      -520.7781 
   1   2.0000     -19.111353      -520.0464 
   2   2.0000      -1.020836       -27.7784 
   3   2.0000      -0.993026       -27.0216 
   4   2.0000      -0.528806       -14.3895 
   5   2.0000      -0.511296       -13.9131 
   6   2.0000      -0.414862       -11.2890 
   7   2.0000      -0.389089       -10.5876 
   8   2.0000      -0.327989        -8.9250 
   9   2.0000      -0.310325        -8.4444 
  10   0.0000       0.027517         0.7488 
  11   0.0000       0.076172         2.0727 
  12   0.0000       0.116680         3.1750 
  13   0.0000       0.193372         5.2619 
  14   0.0000       0.323386         8.7998 
  15   0.0000       0.352895         9.6028 
  16   0.0000       0.357438         9.7264 
  17   0.0000       0.406516        11.0619 
  18   0.0000       0.423182        11.5154 
  19   0.0000       0.443440        12.0666 
  20   0.0000       0.468029        12.7357 
  21   0.0000       0.554235        15.0815 
  22   0.0000       0.565823        15.3968 
  23   0.0000       0.581714        15.8292 
  24   0.0000       0.732066        19.9205 
  25   0.0000       0.832853        22.6631 
  26   0.0000       1.128025        30.6951 
  27   0.0000       1.159295        31.5460 
  28   0.0000       1.189803        32.3762 
  29   0.0000       1.231806        33.5191 
  30   0.0000       1.297761        35.3139 
  31   0.0000       1.307843        35.5882 
  32   0.0000       1.547431        42.1077 
  33   0.0000       1.565269        42.5931 
  34   0.0000       1.614865        43.9427 
  35   0.0000       1.749473        47.6056 
  36   0.0000       1.796691        48.8904 
  37   0.0000       1.839048        50.0430 
  38   0.0000       2.010190        54.7001 
  39   0.0000       2.025392        55.1137 
  40   0.0000       2.057753        55.9943 
  41   0.0000       2.083663        56.6993 
  42   0.0000       2.133633        58.0591 
  43   0.0000       2.217182        60.3326 
  44   0.0000       2.298019        62.5323 
  45   0.0000       2.330146        63.4065 
  46   0.0000       2.348264        63.8995 
  47   0.0000       2.384591        64.8880 
  48   0.0000       2.523131        68.6579 
  49   0.0000       2.564582        69.7858 
  50   0.0000       2.595586        70.6295 
  51   0.0000       2.618873        71.2632 
  52   0.0000       2.634724        71.6945 
  53   0.0000       2.789968        75.9189 
  54   0.0000       2.845946        77.4421 
  55   0.0000       2.997648        81.5701 
  56   0.0000       3.653751        99.4236 
  57   0.0000       3.698771       100.6487 
  58   0.0000       3.886029       105.7442 
  59   0.0000       3.926661       106.8499 
  60   0.0000       5.077863       138.1757 
  61   0.0000       5.101345       138.8147 
  62   0.0000       5.205335       141.6444 
  63   0.0000       5.212307       141.8341 
  64   0.0000       5.350190       145.5861 
  65   0.0000       5.369178       146.1028 
  66   0.0000       5.382413       146.4629 
  67   0.0000       5.409722       147.2060 
  68   0.0000       5.413486       147.3085 
  69   0.0000       5.433191       147.8447 
  70   0.0000       5.989373       162.9791 
  71   0.0000       5.994361       163.1149 
  72   0.0000       6.153319       167.4403 
  73   0.0000       6.240538       169.8137 
  74   0.0000       6.303784       171.5347 
  75   0.0000       6.338006       172.4659 
  76   0.0000       6.354627       172.9182 
  77   0.0000       6.389848       173.8766 
  78   0.0000       6.451418       175.5520 
  79   0.0000       6.468303       176.0115 
  80   0.0000       6.831415       185.8922 
  81   0.0000       6.934720       188.7033 
  82   0.0000       6.997492       190.4114 
  83   0.0000       7.056602       192.0199 
  84   0.0000      43.290813      1178.0029 
  85   0.0000      43.344809      1179.4722 

                    ********************************
                    * MULLIKEN POPULATION ANALYSIS *
                    ********************************

-----------------------
MULLIKEN ATOMIC CHARGES
-----------------------
   0 O :   -0.725933
   1 H :    0.388151
   2 H :    0.386099
   3 O :   -0.773920
   4 H :    0.356594
   5 H :    0.369009
Sum of atomic charges:    0.0000000

--------------------------------
MULLIKEN REDUCED ORBITAL CHARGES
--------------------------------
  0 O s       :     3.810529  s :     3.810529
      pz      :     1.703651  p :     4.894552
      px      :     1.595022
      py      :     1.595879
      dz2     :     0.003060  d :     0.019675
      dxz     :     0.005814
      dyz     :     0.001829
      dx2y2   :     0.005324
      dxy     :     0.003649
      f0      :     0.000078  f :     0.001176
      f+1     :     0.000291
      f-1     :     0.000147
      f+2     :     0.000250
      f-2     :     0.000042
      f+3     :     0.000362
      f-3     :     0.000006
  1 H s       :     0.568430  s :     0.568430
      pz      :     0.011853  p :     0.043419
      px      :     0.013013
      py      :     0.018552
  2 H s       :     0.570558  s :     0.570558
      pz      :     0.016653  p :     0.043343
      px      :     0.016309
      py      :     0.010380
  3 O s       :     3.808620  s :     3.808620
      pz      :     1.698857  p :     4.945542
      px      :     1.696077
      py      :     1.550608
      dz2     :     0.004055  d :     0.018583
      dxz     :     0.004828
      dyz     :     0.001516
      dx2y2   :     0.005239
      dxy     :     0.002946
      f0      :     0.000034  f :     0.001174
      f+1     :     0.000401
      f-1     :     0.000135
      f+2     :     0.000169
      f-2     :     0.000065
      f+3     :     0.000307
      f-3     :     0.000062
  4 H s       :     0.590207  s :     0.590207
      pz      :     0.023637  p :     0.053200
      px      :     0.019520
      py      :     0.010043
  5 H s       :     0.586576  s :     0.586576
      pz      :     0.012039  p :     0.044415
      px      :     0.013892
      py      :     0.018484


                     *******************************
                     * LOEWDIN POPULATION ANALYSIS *
                     *******************************

----------------------
LOEWDIN ATOMIC CHARGES
----------------------
   0 O :   -0.305348
   1 H :    0.189985
   2 H :    0.188749
   3 O :   -0.391625
   4 H :    0.142206
   5 H :    0.176033

-------------------------------
LOEWDIN REDUCED ORBITAL CHARGES
-------------------------------
  0 O s       :     3.461772  s :     3.461772
      pz      :     1.667272  p :     4.813149
      px      :     1.558246
      py      :     1.587631
      dz2     :     0.004355  d :     0.028210
      dxz     :     0.009770
      dyz     :     0.000812
      dx2y2   :     0.007441
      dxy     :     0.005831
      f0      :     0.000061  f :     0.002217
      f+1     :     0.000458
      f-1     :     0.000361
      f+2     :     0.000545
      f-2     :     0.000043
      f+3     :     0.000709
      f-3     :     0.000040
  1 H s       :     0.652759  s :     0.652759
      pz      :     0.036140  p :     0.157256
      px      :     0.042896
      py      :     0.078219
  2 H s       :     0.654133  s :     0.654133
      pz      :     0.063869  p :     0.157117
      px      :     0.061189
      py      :     0.032059
  3 O s       :     3.468839  s :     3.468839
      pz      :     1.668566  p :     4.893841
      px      :     1.666186
      py      :     1.559090
      dz2     :     0.005866  d :     0.026775
      dxz     :     0.008014
      dyz     :     0.000762
      dx2y2   :     0.007549
      dxy     :     0.004584
      f0      :     0.000017  f :     0.002170
      f+1     :     0.000628
      f-1     :     0.000394
      f+2     :     0.000343
      f-2     :     0.000040
      f+3     :     0.000612
      f-3     :     0.000136
  4 H s       :     0.676451  s :     0.676451
      pz      :     0.084625  p :     0.181343
      px      :     0.066545
      py      :     0.030174
  5 H s       :     0.664709  s :     0.664709
      pz      :     0.036140  p :     0.159258
      px      :     0.043526
      py      :     0.079592


                      *****************************
                      * MAYER POPULATION ANALYSIS *
                      *****************************

  NA   - Mulliken gross atomic population
  ZA   - Total nuclear charge
  QA   - Mulliken gross atomic charge
  VA   - Mayer's total valence
  BVA  - Mayer's bonded valence
  FA   - Mayer's free valence

  ATOM       NA         ZA         QA         VA         BVA        FA
  0 O      8.7259     8.0000    -0.7259     1.8171     1.8171    -0.0000
  1 H      0.6118     1.0000     0.3882     0.8621     0.8621    -0.0000
  2 H      0.6139     1.0000     0.3861     0.8657     0.8657    -0.0000
  3 O      8.7739     8.0000    -0.7739     1.6913     1.6913     0.0000
  4 H      0.6434     1.0000     0.3566     0.9343     0.9343     0.0000
  5 H      0.6310     1.0000     0.3690     0.8771     0.8771     0.0000

  Mayer bond orders larger than 0.1
B(  0-O ,  1-H ) :   0.8568 B(  0-O ,  2-H ) :   0.8572 B(  0-O ,  4-H ) :   0.1113 
B(  3-O ,  4-H ) :   0.8218 B(  3-O ,  5-H ) :   0.8736 

-------
TIMINGS
-------

Total SCF time: 0 days 0 hours 0 min 3 sec 

Total time                  ....       3.717 sec
Sum of individual times     ....       5.121 sec  (137.8%)

Fock matrix formation       ....       2.880 sec  ( 77.5%)
  Coulomb formation         ....       2.702 sec  ( 93.8% of F)
  Split-RI-J                ....       0.714 sec  ( 24.8% of F)
  Chain of spheres X        ....       0.622 sec  ( 21.6% of F)
  XC integration            ....       0.174 sec  (  6.1% of F)
    Basis function eval.    ....       0.049 sec  ( 28.2% of XC)
    Density eval.           ....       0.026 sec  ( 15.1% of XC)
    XC-Functional eval.     ....       0.018 sec  ( 10.3% of XC)
    XC-Potential eval.      ....       0.049 sec  ( 28.0% of XC)
Diagonalization             ....       0.010 sec  (  0.3%)
Density matrix formation    ....       0.013 sec  (  0.4%)
Population analysis         ....       0.003 sec  (  0.1%)
Initial guess               ....       0.163 sec  (  4.4%)
Orbital Transformation      ....       0.000 sec  (  0.0%)
Orbital Orthonormalization  ....       0.000 sec  (  0.0%)
DIIS solution               ....       0.002 sec  (  0.1%)
SOSCF solution              ....       0.071 sec  (  1.9%)
Grid generation             ....       0.435 sec  ( 11.7%)
COSMO(total)                ....       1.545 sec  ( 41.6%)
   Initialization           ....       0.119 sec  (  7.7% of COSMO)
   Potential evaluation     ....       0.693 sec  ( 44.8% of COSMO)
   Charge calculation       ....       0.095 sec  (  6.1% of COSMO)
   Fock-Matrix contrib.     ....       0.685 sec  ( 44.3% of COSMO)
   Outer-lying charge       ....       0.069 sec  (  4.5% of COSMO)
           ************************************************************
           *              Shut down parallel processing               *
           ************************************************************

Entering the calculation of the dispersion correction...

Checking the input atom types...

Done


-------------------------------------------------------------------------------
                          DFT DISPERSION CORRECTION                            
                                                                               
                                DFTD3 V2.1  Rev 6                               
                          USING Becke-Johnson damping                          
-------------------------------------------------------------------------------
The B3LYP functional is recognized
Active option DFTDOPT                   ...         4   

molecular C6(AA) [au] = 178.126186 


            DFT-D V3
 parameters
 s6 scaling factor         :     1.0000 
 a1 scaling factor         :     0.3981 
 s8 scaling factor         :     1.9889 
 a2 scaling factor         :     4.4211 
 ad hoc parameters k1-k3   :    16.0000     1.3333    -4.0000 

 Edisp/kcal,au: -1.449422593876  -0.002309801683 
 E6   /kcal   :  -0.781536440 
 E8   /kcal   :  -0.667886154 
 % E8         :  46.079463400 

-------------------------   ----------------
Dispersion correction           -0.002309802
-------------------------   ----------------


-------------------------   --------------------
FINAL SINGLE POINT ENERGY      -152.888516286205
-------------------------   --------------------


                            ***************************************
                            *     ORCA property calculations      *
                            ***************************************

                                    ---------------------
                                    Active property flags
                                    ---------------------
   (+) Dipole Moment


------------------------------------------------------------------------------
                       ORCA ELECTRIC PROPERTIES CALCULATION
------------------------------------------------------------------------------

Dipole Moment Calculation                       ... on
Quadrupole Moment Calculation                   ... off
Polarizability Calculation                      ... off
GBWName                                         ... 3_B3LYP_SMD_onB3LYP_SMD_2_waters.gbw
Electron density file                           ... 3_B3LYP_SMD_onB3LYP_SMD_2_waters.scfp.tmp

-------------
DIPOLE MOMENT
-------------
                                X             Y             Z
Electronic contribution:      0.14049      -0.00922      -0.19060
Nuclear contribution   :     -0.00869      -0.01937      -1.14564
                        -----------------------------------------
Total Dipole Moment    :      0.13179      -0.02858      -1.33624
                        -----------------------------------------
Magnitude (a.u.)       :      1.34303
Magnitude (Debye)      :      3.41371

smp-n52.crc.pitt.edu.110061hfi_wait_for_device: The /dev/hfi1_0 device failed to appear after 15.0 seconds: Connection timed out
smp-n52.crc.pitt.edu.110062hfi_wait_for_device: The /dev/hfi1_0 device failed to appear after 15.0 seconds: Connection timed out
smp-n52.crc.pitt.edu.110063hfi_wait_for_device: The /dev/hfi1_0 device failed to appear after 15.0 seconds: Connection timed out
smp-n52.crc.pitt.edu.110064hfi_wait_for_device: The /dev/hfi1_0 device failed to appear after 15.0 seconds: Connection timed out
smp-n52.crc.pitt.edu.110065hfi_wait_for_device: The /dev/hfi1_0 device failed to appear after 15.0 seconds: Connection timed out
smp-n52.crc.pitt.edu.110066hfi_wait_for_device: The /dev/hfi1_0 device failed to appear after 15.0 seconds: Connection timed out
smp-n52.crc.pitt.edu.110068hfi_wait_for_device: The /dev/hfi1_0 device failed to appear after 15.0 seconds: Connection timed out
smp-n52.crc.pitt.edu.110070hfi_wait_for_device: The /dev/hfi1_0 device failed to appear after 15.0 seconds: Connection timed out
smp-n52.crc.pitt.edu.110072hfi_wait_for_device: The /dev/hfi1_0 device failed to appear after 15.0 seconds: Connection timed out
smp-n52.crc.pitt.edu.110076hfi_wait_for_device: The /dev/hfi1_0 device failed to appear after 15.0 seconds: Connection timed out
smp-n52.crc.pitt.edu.110078hfi_wait_for_device: The /dev/hfi1_0 device failed to appear after 15.0 seconds: Connection timed out
smp-n52.crc.pitt.edu.110075hfi_wait_for_device: The /dev/hfi1_0 device failed to appear after 15.0 seconds: Connection timed out

Timings for individual modules:

Sum of individual times         ...       34.644 sec (=   0.577 min)
GTO integral calculation        ...       15.460 sec (=   0.258 min)  44.6 %
SCF iterations                  ...       19.185 sec (=   0.320 min)  55.4 %
                             ****ORCA TERMINATED NORMALLY****
TOTAL RUN TIME: 0 days 0 hours 0 minutes 50 seconds 88 msec
cp: cannot stat ‘/scratch/slurm-1328817/*.{prop}’: No such file or directory
