37
Energy:  -1024.17178841
O    4.71281543   1.58463205  -0.18041750
H    5.04912376   2.31733906   0.33559508
H    5.49473803   1.16445512  -0.53857981
O   -0.86768100  -1.65694242   2.85420140
H   -0.72674513  -2.08042877   3.70097660
H   -1.51059136  -0.97072838   3.03311034
O    2.11359905   0.89280429  -0.50299824
H    1.85482538   1.25107327  -1.35206324
H    3.02806560   1.15619870  -0.40001208
O   -1.38232759  -2.72550550   0.38729667
H   -1.34043892  -2.42959574   1.29664512
H   -1.53885565  -3.66783292   0.44853269
O    0.06118164  -1.15024638  -3.10116700
H   -0.84242962  -1.17873706  -2.78667246
H    0.08596340  -1.78428906  -3.81783121
O    0.86349011  -1.40449729  -0.46875213
H    0.75375301  -1.40220083  -1.41963822
H    0.16149095  -1.97039603  -0.14752380
O    0.82481313   0.13427102   1.64992533
H    0.34957594  -0.52103667   2.16076122
H    0.36011931   0.95379946   1.81923166
O   -2.48219908   0.47774453   3.16835457
H   -3.18631831   0.87472027   3.68105159
H   -2.04123383   1.21850044   2.75234714
O   -0.90979629   2.27058638   1.76812804
H   -1.06689584   2.04875827   0.85033511
H   -0.85268926   3.22603325   1.77771549
O    0.80799563   1.50230669  -2.85604197
H    0.92463810   2.02536892  -3.64915753
H    0.60811954   0.62257992  -3.17598291
O   -2.29702483  -1.07203706  -1.64913492
H   -3.23753740  -1.12619289  -1.81864919
H   -2.14767689  -1.68287685  -0.92746894
O   -0.95643436   1.18359207  -0.73014023
H   -1.54441655   0.49502812  -1.04060519
H   -0.50764925   1.48938435  -1.51837551
H    1.26102656  -0.09664507   0.23885712
