37
Energy:  -1026.12469008
O   -1.93669665  -0.46500260   0.57970127
H   -1.55591974  -1.34308406   0.56508110
H   -2.23769853  -0.34892507   1.48089810
O    1.14854713  -1.37361500  -1.01038138
H    2.06958215  -1.18400468  -1.18919486
H    0.68767567  -1.09155935  -1.80049147
O   -1.97918534   0.03091127   3.33513144
H   -1.25047351  -0.57960809   3.44683203
H   -2.54635674  -0.13190387   4.08881551
O    0.28527081  -1.52570666   3.02460335
H    0.85651561  -2.02223624   3.61058083
H    0.05620323  -2.14472273   2.33136530
O   -0.44188936  -2.81538371   0.69961235
H    0.18326101  -2.50787569   0.04321485
H   -0.61836716  -3.72403689   0.45581565
O   -0.08067080   2.05321134  -0.48242758
H   -0.87144291   1.82553788  -0.97138169
H    0.61136929   2.07776482  -1.14326757
O   -0.10053125  -0.19067747  -3.18628429
H   -0.33687328  -0.61773989  -4.00968698
H   -0.92972897   0.13986188  -2.84073151
O   -0.67552519   2.07304162   2.07681894
H   -1.19043263   1.49254884   2.63729223
H   -0.87685844   2.95347883   2.39387901
O    1.74576291   1.75802406  -2.50235557
H    1.18653220   1.10728539  -2.92665740
H    1.93354103   2.39758660  -3.18932790
O    3.52244027  -0.17992256  -1.53231761
H    3.12478069   0.61137552  -1.89556142
H    4.46019693  -0.07175455  -1.69088612
O    1.02789908   0.32809993   1.12363928
H    0.91372247  -0.26341881   1.86748142
H    1.17762081  -0.25160282   0.37680598
O   -2.20888828   0.88283984  -1.76993661
H   -2.30726144   0.33411298  -0.99182775
H   -3.10128817   1.15104724  -1.98884088
H    0.09901814   1.46824261   0.89079039
