37
Energy:  -1025.33131773
O   -2.83048603  -0.97863209   0.92339538
H   -3.71988595  -1.25091045   1.14936909
H   -2.27247659  -1.68163907   1.25601905
O    2.61474586   0.35883527   1.54481708
H    3.41485053   0.50881392   2.04837520
H    2.02155143  -0.07275205   2.15970292
O   -1.11270014   1.06037925   1.57690872
H   -0.54521978   0.58695384   2.18523945
H   -1.84184270   0.46205667   1.41383495
O    0.50129877  -0.61972346   3.02899367
H    0.46815970  -0.74331906   3.97760201
H    0.11182716  -1.41673295   2.66938335
O    0.49975222  -2.60956125  -0.66094258
H    0.47934483  -3.23516830  -1.38511881
H   -0.04290757  -1.87957794  -0.95906433
O    0.88046311   1.92509672   0.12817418
H    1.19316690   1.86998840  -0.77482707
H    1.54943855   1.47250167   0.64184862
O   -1.04657458  -0.44755903  -1.15605870
H   -1.26931458   0.05813646  -1.93765374
H   -1.88733022  -0.61246468  -0.72924736
O   -1.57443274   2.54436662  -0.54651584
H   -2.15861177   3.30064544  -0.49166099
H   -1.52377998   2.34759392  -1.48190167
O    1.60659634   1.43278501  -2.46745135
H    1.94043915   0.60976549  -2.11049241
H    2.34930571   1.80795482  -2.94059220
O    2.46646759  -0.70373850  -1.03694828
H    2.71377145  -0.44318728  -0.14971341
H    1.92174254  -1.48142243  -0.91564630
O   -0.78922948  -2.69487150   1.75029756
H   -0.84727403  -3.59201076   2.07893692
H   -0.29121217  -2.76924206   0.93624619
O   -1.08868456   1.57432966  -3.06036700
H   -1.31506602   1.71860290  -3.97915343
H   -0.13235623   1.53430081  -3.05226320
H   -0.57867547   1.80457391   0.39841780
