6
Energy:    -20.48934054
O    1.04311582   1.16374435  -0.43548417
H    1.24165544   1.05572360  -1.36561609
H    0.61170304   0.34660113  -0.18570061
O   -0.88848465  -0.92587855   0.30993795
H   -1.62962967  -0.44415879   0.67720077
H   -0.46279808  -1.32592107   1.06821809
