6
Energy:    -20.86027737
O   -0.82594499  -0.97906339  -0.53147332
H   -1.59218942  -0.59082278  -0.10913394
H   -0.42001072  -1.51271209   0.15165792
O    0.80577403   1.08720467   0.51948365
H    1.64967170   1.35584671   0.15630323
H    0.39371398   0.58049511  -0.18029044
