
                                 *****************
                                 * O   R   C   A *
                                 *****************

           --- An Ab Initio, DFT and Semiempirical electronic structure package ---

                  #######################################################
                  #                        -***-                        #
                  #          Department of theory and spectroscopy      #
                  #               Directorship: Frank Neese             #
                  #        Max Planck Institute fuer Kohlenforschung    #
                  #                Kaiser Wilhelm Platz 1               #
                  #                 D-45470 Muelheim/Ruhr               #
                  #                      Germany                        #
                  #                                                     #
                  #                  All rights reserved                #
                  #                        -***-                        #
                  #######################################################


                         Program Version 4.2.0 -  RELEASE  -


 With contributions from (in alphabetic order):
   Daniel Aravena         : Magnetic Suceptibility
   Michael Atanasov       : Ab Initio Ligand Field Theory (pilot matlab implementation)
   Alexander A. Auer      : GIAO ZORA, VPT2
   Ute Becker             : Parallelization
   Giovanni Bistoni       : ED, misc. LED, open-shell LED, HFLED
   Martin Brehm           : Molecular dynamics
   Dmytro Bykov           : SCF Hessian
   Vijay G. Chilkuri      : MRCI spin determinant printing, contributions to CSF-ICE
   Dipayan Datta          : RHF DLPNO-CCSD density
   Achintya Kumar Dutta   : EOM-CC, STEOM-CC
   Dmitry Ganyushin       : Spin-Orbit,Spin-Spin,Magnetic field MRCI
   Miquel Garcia          : C-PCM Hessian, Gaussian charge scheme
   Yang Guo               : DLPNO-NEVPT2, CIM, IAO-localization
   Andreas Hansen         : Spin unrestricted coupled pair/coupled cluster methods
   Benjamin Helmich-Paris : CASSCF linear response (MC-RPA)
   Lee Huntington         : MR-EOM, pCC
   Robert Izsak           : Overlap fitted RIJCOSX, COSX-SCS-MP3, EOM
   Christian Kollmar      : KDIIS, OOCD, Brueckner-CCSD(T), CCSD density
   Simone Kossmann        : Meta GGA functionals, TD-DFT gradient, OOMP2, MP2 Hessian
   Martin Krupicka        : AUTO-CI
   Lucas Lang             : DCDCAS
   Dagmar Lenk            : GEPOL surface, SMD
   Dimitrios Liakos       : Extrapolation schemes; Compound Job, initial MDCI parallelization
   Dimitrios Manganas     : Further ROCIS development; embedding schemes
   Dimitrios Pantazis     : SARC Basis sets
   Taras Petrenko         : DFT Hessian,TD-DFT gradient, ASA, ECA, R-Raman, ABS, FL, XAS/XES, NRVS
   Peter Pinski           : DLPNO-MP2, DLPNO-MP2 Gradient
   Christoph Reimann      : Effective Core Potentials
   Marius Retegan         : Local ZFS, SOC
   Christoph Riplinger    : Optimizer, TS searches, QM/MM, DLPNO-CCSD(T), (RO)-DLPNO pert. Triples
   Tobias Risthaus        : Range-separated hybrids, TD-DFT gradient, RPA, STAB
   Michael Roemelt        : Original ROCIS implementation
   Masaaki Saitow         : Open-shell DLPNO-CCSD energy and density
   Barbara Sandhoefer     : DKH picture change effects
   Avijit Sen             : IP-ROCIS
   Kantharuban Sivalingam : CASSCF convergence, NEVPT2, FIC-MRCI
   Bernardo de Souza      : ESD, SOC TD-DFT
   Georgi Stoychev        : AutoAux, RI-MP2 NMR
   Willem Van den Heuvel  : Paramagnetic NMR
   Boris Wezisla          : Elementary symmetry handling
   Frank Wennmohs         : Technical directorship


 We gratefully acknowledge several colleagues who have allowed us to
 interface, adapt or use parts of their codes:
   Stefan Grimme, W. Hujo, H. Kruse,             : VdW corrections, initial TS optimization,
                  C. Bannwarth                     DFT functionals, gCP, sTDA/sTD-DF
   Ed Valeev, F. Pavosevic, A. Kumar             : LibInt (2-el integral package), F12 methods
   Garnet Chan, S. Sharma, J. Yang, R. Olivares  : DMRG
   Ulf Ekstrom                                   : XCFun DFT Library
   Mihaly Kallay                                 : mrcc  (arbitrary order and MRCC methods)
   Andreas Klamt, Michael Diedenhofen            : otool_cosmo (COSMO solvation model)
   Jiri Pittner, Ondrej Demel                    : Mk-CCSD
   Frank Weinhold                                : gennbo (NPA and NBO analysis)
   Christopher J. Cramer and Donald G. Truhlar   : smd solvation model
   Lars Goerigk                                  : TD-DFT with DH, B97 family of functionals
   V. Asgeirsson, H. Jonsson                     : NEB implementation
   FAccTs GmbH                                   : IRC, NEB, NEB-TS, Multilevel, MM, QM/MM, CI optimization
   S Lehtola, MJT Oliveira, MAL Marques          : LibXC Library


 Your calculation uses the libint2 library for the computation of 2-el integrals
 For citations please refer to: http://libint.valeyev.net

 Your ORCA version has been built with support for libXC version: 4.2.3
 For citations please refer to: https://tddft.org/programs/libxc/

 This ORCA versions uses:
   CBLAS   interface :  Fast vector & matrix operations
   LAPACKE interface :  Fast linear algebra routines
   SCALAPACK package :  Parallel linear algebra routines


----- Orbital basis set information -----
Your calculation utilizes the basis: def2-TZVP
   F. Weigend and R. Ahlrichs, Phys. Chem. Chem. Phys. 7, 3297 (2005).

================================================================================
                                        WARNINGS
                       Please study these warnings very carefully!
================================================================================


WARNING: The frozen-core approximation for MP2-gradient calculations is turned on by default.

INFO   : the flag for use of LIBINT has been found!

================================================================================
                                       INPUT FILE
================================================================================
NAME = 12h2o.su.etal.mol1,9,10-orca.engrad-mp2.def2tzvp.frozencore.inp
|  1> # 12h2o.su.etal.mol1,9,10
|  2> ! MP2 def2-TZVP EnGrad TightSCF
|  3> 
|  4> %pal
|  5>     nprocs 6
|  6> end
|  7> 
|  8> %maxcore 8000
|  9> 
| 10> %scf
| 11>     ConvForced true
| 12> end
| 13> 
| 14> *xyz 0 1
| 15> O  -1.794470000  -0.923410000   2.768350000
| 16> H  -2.338250000  -1.359750000   3.430940000
| 17> H  -0.879480000  -1.303000000   2.865760000
| 18> O   0.741530000  -1.752130000   2.896280000
| 19> H   0.920500000  -2.036450000   1.984040000
| 20> H   1.242140000  -0.921210000   2.984230000
| 21> O  -0.923410000   1.794470000  -2.768350000
| 22> H  -1.359750000   2.338250000  -3.430940000
| 23> H  -1.303000000   0.879480000  -2.865760000
| 24> *
| 25> 
| 26>                          ****END OF INPUT****
================================================================================

                     *******************************
                     * Energy+Gradient Calculation *
                     *******************************

---------------------------------
CARTESIAN COORDINATES (ANGSTROEM)
---------------------------------
  O     -1.794470   -0.923410    2.768350
  H     -2.338250   -1.359750    3.430940
  H     -0.879480   -1.303000    2.865760
  O      0.741530   -1.752130    2.896280
  H      0.920500   -2.036450    1.984040
  H      1.242140   -0.921210    2.984230
  O     -0.923410    1.794470   -2.768350
  H     -1.359750    2.338250   -3.430940
  H     -1.303000    0.879480   -2.865760

----------------------------
CARTESIAN COORDINATES (A.U.)
----------------------------
  NO LB      ZA    FRAG     MASS         X           Y           Z
   0 O     8.0000    0    15.999   -3.391057   -1.744992    5.231423
   1 H     1.0000    0     1.008   -4.418652   -2.569555    6.483537
   2 H     1.0000    0     1.008   -1.661976   -2.462313    5.415502
   3 O     8.0000    0    15.999    1.401289   -3.311046    5.473176
   4 H     1.0000    0     1.008    1.739493   -3.848333    3.749292
   5 H     1.0000    0     1.008    2.347304   -1.740835    5.639377
   6 O     8.0000    0    15.999   -1.744992    3.391057   -5.231423
   7 H     1.0000    0     1.008   -2.569555    4.418652   -6.483537
   8 H     1.0000    0     1.008   -2.462313    1.661976   -5.415502

--------------------------------
INTERNAL COORDINATES (ANGSTROEM)
--------------------------------
 O      0   0   0     0.000000000000     0.00000000     0.00000000
 H      1   0   0     0.961828878803     0.00000000     0.00000000
 H      1   2   0     0.995381322057   106.21731035     0.00000000
 O      3   1   2     1.682356278379   171.61043709   195.73896161
 H      4   3   1     0.972136791249   103.79460456   289.35412162
 H      4   3   1     0.974050112161   105.61118924    38.30604821
 O      1   2   3     6.229017908788   152.78811022   148.20682389
 H      7   1   2     0.961828878803   142.70840549    32.77530239
 H      7   1   2     0.995381322057    68.44287781   304.10042923

---------------------------
INTERNAL COORDINATES (A.U.)
---------------------------
 O      0   0   0     0.000000000000     0.00000000     0.00000000
 H      1   0   0     1.817593168635     0.00000000     0.00000000
 H      1   2   0     1.880998097508   106.21731035     0.00000000
 O      3   1   2     3.179192625819   171.61043709   195.73896161
 H      4   3   1     1.837072300170   103.79460456   289.35412162
 H      4   3   1     1.840687952699   105.61118924    38.30604821
 O      1   2   3    11.771137930900   152.78811022   148.20682389
 H      7   1   2     1.817593168635   142.70840549    32.77530239
 H      7   1   2     1.880998097508    68.44287781   304.10042923

---------------------
BASIS SET INFORMATION
---------------------
There are 2 groups of distinct atoms

 Group   1 Type O   : 11s6p2d1f contracted to 5s3p2d1f pattern {62111/411/11/1}
 Group   2 Type H   : 5s1p contracted to 3s1p pattern {311/1}

Atom   0O    basis set group =>   1
Atom   1H    basis set group =>   2
Atom   2H    basis set group =>   2
Atom   3O    basis set group =>   1
Atom   4H    basis set group =>   2
Atom   5H    basis set group =>   2
Atom   6O    basis set group =>   1
Atom   7H    basis set group =>   2
Atom   8H    basis set group =>   2


           ************************************************************
           *        Program running with 6 parallel MPI-processes     *
           *              working on a common directory               *
           ************************************************************
------------------------------------------------------------------------------
                           ORCA GTO INTEGRAL CALCULATION
------------------------------------------------------------------------------

                         BASIS SET STATISTICS AND STARTUP INFO

 # of primitive gaussian shells          ...   96
 # of primitive gaussian functions       ...  186
 # of contracted shells                  ...   57
 # of contracted basis functions         ...  129
 Highest angular momentum                ...    3
 Maximum contraction depth               ...    6
 Integral package used                   ... LIBINT
 Integral threshhold            Thresh   ...  2.500e-11
 Primitive cut-off              TCut     ...  2.500e-12


------------------------------ INTEGRAL EVALUATION ----------------------------


 * One electron integrals 
 Pre-screening matrix                    ... done
 Shell pair data                         ... done (   0.000 sec)



           ************************************************************
           *        Program running with 6 parallel MPI-processes     *
           *              working on a common directory               *
           ************************************************************
-------------------------------------------------------------------------------
                                 ORCA SCF
-------------------------------------------------------------------------------

------------
SCF SETTINGS
------------
Hamiltonian:
 Ab initio Hamiltonian  Method          .... Hartree-Fock(GTOs)


General Settings:
 Integral files         IntName         .... 12h2o.su.etal.mol1,9,10-orca.engrad-mp2.def2tzvp.frozencore
 Hartree-Fock type      HFTyp           .... RHF
 Total Charge           Charge          ....    0
 Multiplicity           Mult            ....    1
 Number of Electrons    NEL             ....   30
 Basis Dimension        Dim             ....  129
 Nuclear Repulsion      ENuc            ....     63.1489552923 Eh

Convergence Acceleration:
 DIIS                   CNVDIIS         .... on
   Start iteration      DIISMaxIt       ....    12
   Startup error        DIISStart       ....  0.200000
   # of expansion vecs  DIISMaxEq       ....     5
   Bias factor          DIISBfac        ....   1.050
   Max. coefficient     DIISMaxC        ....  10.000
 Newton-Raphson         CNVNR           .... off
 SOSCF                  CNVSOSCF        .... on
   Start iteration      SOSCFMaxIt      ....   150
   Startup grad/error   SOSCFStart      ....  0.003300
 Level Shifting         CNVShift        .... on
   Level shift para.    LevelShift      ....    0.2500
   Turn off err/grad.   ShiftErr        ....    0.0010
 Zerner damping         CNVZerner       .... off
 Static damping         CNVDamp         .... on
   Fraction old density DampFac         ....    0.7000
   Max. Damping (<1)    DampMax         ....    0.9800
   Min. Damping (>=0)   DampMin         ....    0.0000
   Turn off err/grad.   DampErr         ....    0.1000
 Fernandez-Rico         CNVRico         .... off

SCF Procedure:
 Maximum # iterations   MaxIter         ....   125
 SCF integral mode      SCFMode         .... Direct
   Integral package                     .... LIBINT
 Reset frequency        DirectResetFreq ....    20
 Integral Threshold     Thresh          ....  2.500e-11 Eh
 Primitive CutOff       TCut            ....  2.500e-12 Eh

Convergence Tolerance:
 Convergence Check Mode ConvCheckMode   .... Total+1el-Energy
 Convergence forced     ConvForced      .... 1
 Energy Change          TolE            ....  1.000e-08 Eh
 1-El. energy change                    ....  1.000e-05 Eh
 Orbital Gradient       TolG            ....  1.000e-05
 Orbital Rotation angle TolX            ....  1.000e-05
 DIIS Error             TolErr          ....  5.000e-07


Diagonalization of the overlap matrix:
Smallest eigenvalue                        ... 4.833e-03
Time for diagonalization                   ...    0.003 sec
Threshold for overlap eigenvalues          ... 1.000e-08
Number of eigenvalues below threshold      ... 0
Time for construction of square roots      ...    0.001 sec
Total time needed                          ...    0.004 sec

-------------------
DFT GRID GENERATION
-------------------

General Integration Accuracy     IntAcc      ...  4.340
Radial Grid Type                 RadialGrid  ... Gauss-Chebyshev
Angular Grid (max. acc.)         AngularGrid ... Lebedev-110
Angular grid pruning method      GridPruning ... 3 (G Style)
Weight generation scheme         WeightScheme... Becke
Basis function cutoff            BFCut       ...    1.0000e-11
Integration weight cutoff        WCut        ...    1.0000e-14
Grids for H and He will be reduced by one unit

# of grid points (after initial pruning)     ...   9912 (   0.0 sec)
# of grid points (after weights+screening)   ...   9736 (   0.0 sec)
nearest neighbour list constructed           ...    0.0 sec
Grid point re-assignment to atoms done       ...    0.0 sec
Grid point division into batches done        ...    0.0 sec
Reduced shell lists constructed in    0.0 sec

Total number of grid points                  ...     9736
Total number of batches                      ...      156
Average number of points per batch           ...       62
Average number of grid points per atom       ...     1082
Average number of shells per batch           ...    31.22 (54.78%)
Average number of basis functions per batch  ...    66.48 (51.54%)
Average number of large shells per batch     ...    23.15 (74.14%)
Average number of large basis fcns per batch ...    47.96 (72.14%)
Maximum spatial batch extension              ...  12.83, 19.62, 16.00 au
Average spatial batch extension              ...   0.89,  1.09,  0.90 au

Time for grid setup =    0.022 sec

------------------------------
INITIAL GUESS: MODEL POTENTIAL
------------------------------
Loading Hartree-Fock densities                     ... done
Calculating cut-offs                               ... done
Setting up the integral package                    ... done
Initializing the effective Hamiltonian             ... done
Starting the Coulomb interaction                   ... done (   0.0 sec)
Reading the grid                                   ... done
Mapping shells                                     ... done
Starting the XC term evaluation                    ... done (   0.0 sec)
Transforming the Hamiltonian                       ... done (   0.0 sec)
Diagonalizing the Hamiltonian                      ... done (   0.0 sec)
Back transforming the eigenvectors                 ... done (   0.0 sec)
Now organizing SCF variables                       ... done
                      ------------------
                      INITIAL GUESS DONE (   0.1 sec)
                      ------------------
--------------
SCF ITERATIONS
--------------
ITER       Energy         Delta-E        Max-DP      RMS-DP      [F,P]     Damp
               ***  Starting incremental Fock matrix formation  ***
  0   -227.8849655741   0.000000000000 0.04406160  0.00140529  0.3504474 0.7000
  1   -227.9992504681  -0.114284893970 0.02933665  0.00096902  0.2165442 0.7000
                               ***Turning on DIIS***
  2   -228.0592420510  -0.059991582882 0.01637322  0.00053441  0.1638380 0.7000
  3   -228.5832565471  -0.524014496119 0.00754570  0.00023783  0.1219059 0.7000
  4   -228.4765652203   0.106691326852 0.01669499  0.00054879  0.0862637 0.0000
  5   -228.1973652867   0.279199933554 0.00207375  0.00008817  0.0053023 0.0000
                      *** Initiating the SOSCF procedure ***
                           *** Shutting down DIIS ***
                      *** Re-Reading the Fockian *** 
                      *** Removing any level shift *** 
ITER      Energy       Delta-E        Grad      Rot      Max-DP    RMS-DP
  6   -228.17993879   0.0174264976  0.001276  0.001276  0.001297  0.000052
               *** Restarting incremental Fock matrix formation ***
  7   -228.17439406   0.0055447336  0.000395  0.000564  0.000630  0.000023
  8   -228.17439837  -0.0000043187  0.000265  0.000398  0.000459  0.000019
  9   -228.17439940  -0.0000010221  0.000105  0.000078  0.000104  0.000003
 10   -228.17439948  -0.0000000834  0.000012  0.000009  0.000019  0.000001
 11   -228.17439948  -0.0000000016  0.000003  0.000003  0.000005  0.000000
                  ***Gradient check signals convergence***
              ***Rediagonalizing the Fockian in SOSCF/NRSCF***

               *****************************************************
               *                     SUCCESS                       *
               *           SCF CONVERGED AFTER  12 CYCLES          *
               *****************************************************


----------------
TOTAL SCF ENERGY
----------------

Total Energy       :         -228.17439948 Eh           -6208.94107 eV

Components:
Nuclear Repulsion  :           63.14895529 Eh            1718.37043 eV
Electronic Energy  :         -291.32335477 Eh           -7927.31150 eV
One Electron Energy:         -440.55023989 Eh          -11987.98148 eV
Two Electron Energy:          149.22688512 Eh            4060.66998 eV

Virial components:
Potential Energy   :         -456.02753596 Eh          -12409.14012 eV
Kinetic Energy     :          227.85313648 Eh            6200.19906 eV
Virial Ratio       :            2.00140996


---------------
SCF CONVERGENCE
---------------

  Last Energy change         ...   -2.3357e-10  Tolerance :   1.0000e-08
  Last MAX-Density change    ...    1.1478e-06  Tolerance :   1.0000e-07
  Last RMS-Density change    ...    4.3878e-08  Tolerance :   5.0000e-09
  Last Orbital Gradient      ...    8.0914e-07  Tolerance :   1.0000e-05
  Last Orbital Rotation      ...    1.0108e-06  Tolerance :   1.0000e-05

             **** THE GBW FILE WAS UPDATED (12h2o.su.etal.mol1,9,10-orca.engrad-mp2.def2tzvp.frozencore.gbw) ****
             **** DENSITY FILE WAS UPDATED (12h2o.su.etal.mol1,9,10-orca.engrad-mp2.def2tzvp.frozencore.scfp) ****
             **** ENERGY FILE WAS UPDATED (12h2o.su.etal.mol1,9,10-orca.engrad-mp2.def2tzvp.frozencore.en.tmp) ****
             **** THE GBW FILE WAS UPDATED (12h2o.su.etal.mol1,9,10-orca.engrad-mp2.def2tzvp.frozencore.gbw) ****
             **** DENSITY FILE WAS UPDATED (12h2o.su.etal.mol1,9,10-orca.engrad-mp2.def2tzvp.frozencore.scfp) ****
----------------
ORBITAL ENERGIES
----------------

  NO   OCC          E(Eh)            E(eV) 
   0   2.0000     -20.597096      -560.4755 
   1   2.0000     -20.560278      -559.4736 
   2   2.0000     -20.515267      -558.2488 
   3   2.0000      -1.382362       -37.6160 
   4   2.0000      -1.335623       -36.3441 
   5   2.0000      -1.297718       -35.3127 
   6   2.0000      -0.739938       -20.1347 
   7   2.0000      -0.704072       -19.1588 
   8   2.0000      -0.689196       -18.7540 
   9   2.0000      -0.616828       -16.7847 
  10   2.0000      -0.571569       -15.5532 
  11   2.0000      -0.556560       -15.1448 
  12   2.0000      -0.512733       -13.9522 
  13   2.0000      -0.503408       -13.6984 
  14   2.0000      -0.465569       -12.6688 
  15   0.0000       0.112273         3.0551 
  16   0.0000       0.128146         3.4870 
  17   0.0000       0.177797         4.8381 
  18   0.0000       0.184712         5.0263 
  19   0.0000       0.197754         5.3812 
  20   0.0000       0.322532         8.7765 
  21   0.0000       0.480014        13.0618 
  22   0.0000       0.498484        13.5644 
  23   0.0000       0.522604        14.2208 
  24   0.0000       0.553123        15.0512 
  25   0.0000       0.563986        15.3468 
  26   0.0000       0.590063        16.0564 
  27   0.0000       0.600537        16.3414 
  28   0.0000       0.632675        17.2160 
  29   0.0000       0.638844        17.3838 
  30   0.0000       0.644298        17.5323 
  31   0.0000       0.649552        17.6752 
  32   0.0000       0.717819        19.5329 
  33   0.0000       0.742309        20.1992 
  34   0.0000       0.767729        20.8910 
  35   0.0000       0.772283        21.0149 
  36   0.0000       0.788118        21.4458 
  37   0.0000       0.934009        25.4157 
  38   0.0000       1.003579        27.3088 
  39   0.0000       1.357791        36.9474 
  40   0.0000       1.381691        37.5977 
  41   0.0000       1.425035        38.7772 
  42   0.0000       1.434800        39.0429 
  43   0.0000       1.489787        40.5392 
  44   0.0000       1.493698        40.6456 
  45   0.0000       1.555939        42.3392 
  46   0.0000       1.592711        43.3399 
  47   0.0000       1.608490        43.7692 
  48   0.0000       1.781734        48.4835 
  49   0.0000       1.788526        48.6683 
  50   0.0000       1.810684        49.2712 
  51   0.0000       1.883112        51.2421 
  52   0.0000       1.898564        51.6625 
  53   0.0000       1.990691        54.1695 
  54   0.0000       2.005240        54.5653 
  55   0.0000       2.061022        56.0833 
  56   0.0000       2.127091        57.8811 
  57   0.0000       2.242511        61.0218 
  58   0.0000       2.294530        62.4373 
  59   0.0000       2.324027        63.2400 
  60   0.0000       2.326382        63.3041 
  61   0.0000       2.336949        63.5916 
  62   0.0000       2.392681        65.1081 
  63   0.0000       2.400175        65.3121 
  64   0.0000       2.488771        67.7229 
  65   0.0000       2.529802        68.8394 
  66   0.0000       2.568156        69.8831 
  67   0.0000       2.577076        70.1258 
  68   0.0000       2.615892        71.1820 
  69   0.0000       2.659927        72.3803 
  70   0.0000       2.699907        73.4682 
  71   0.0000       2.770356        75.3852 
  72   0.0000       2.896485        78.8174 
  73   0.0000       2.908093        79.1332 
  74   0.0000       2.921819        79.5067 
  75   0.0000       2.949259        80.2534 
  76   0.0000       2.976843        81.0040 
  77   0.0000       3.024327        82.2961 
  78   0.0000       3.030528        82.4649 
  79   0.0000       3.092856        84.1609 
  80   0.0000       3.140759        85.4644 
  81   0.0000       3.176311        86.4318 
  82   0.0000       3.229272        87.8729 
  83   0.0000       3.498293        95.1934 
  84   0.0000       3.981951       108.3544 
  85   0.0000       3.999621       108.8352 
  86   0.0000       4.105848       111.7258 
  87   0.0000       4.273983       116.3010 
  88   0.0000       4.311327       117.3172 
  89   0.0000       4.400999       119.7573 
  90   0.0000       5.511913       149.9868 
  91   0.0000       5.553982       151.1315 
  92   0.0000       5.590886       152.1357 
  93   0.0000       5.643034       153.5548 
  94   0.0000       5.653718       153.8455 
  95   0.0000       5.684046       154.6707 
  96   0.0000       5.800215       157.8319 
  97   0.0000       5.804728       157.9547 
  98   0.0000       5.816052       158.2628 
  99   0.0000       5.851953       159.2397 
 100   0.0000       5.854360       159.3052 
 101   0.0000       5.872704       159.8044 
 102   0.0000       5.895309       160.4195 
 103   0.0000       5.920208       161.0970 
 104   0.0000       5.970003       162.4520 
 105   0.0000       6.433506       175.0646 
 106   0.0000       6.452072       175.5698 
 107   0.0000       6.503221       176.9616 
 108   0.0000       6.692910       182.1233 
 109   0.0000       6.701518       182.3576 
 110   0.0000       6.748952       183.6483 
 111   0.0000       6.824893       185.7148 
 112   0.0000       6.833794       185.9570 
 113   0.0000       6.884671       187.3414 
 114   0.0000       6.892125       187.5442 
 115   0.0000       6.898159       187.7085 
 116   0.0000       6.926591       188.4821 
 117   0.0000       6.956391       189.2930 
 118   0.0000       6.990037       190.2086 
 119   0.0000       7.059169       192.0898 
 120   0.0000       7.377031       200.7392 
 121   0.0000       7.404768       201.4940 
 122   0.0000       7.471468       203.3090 
 123   0.0000       7.485588       203.6932 
 124   0.0000       7.502416       204.1511 
 125   0.0000       7.573034       206.0727 
 126   0.0000      44.818009      1219.5600 
 127   0.0000      44.871687      1221.0207 
 128   0.0000      44.959282      1223.4042 

                    ********************************
                    * MULLIKEN POPULATION ANALYSIS *
                    ********************************

-----------------------
MULLIKEN ATOMIC CHARGES
-----------------------
   0 O :   -0.752164
   1 H :    0.332035
   2 H :    0.387386
   3 O :   -0.704513
   4 H :    0.367383
   5 H :    0.369874
   6 O :   -0.698547
   7 H :    0.346933
   8 H :    0.351613
Sum of atomic charges:    0.0000000

--------------------------------
MULLIKEN REDUCED ORBITAL CHARGES
--------------------------------
  0 O s       :     3.808093  s :     3.808093
      pz      :     1.717634  p :     4.918409
      px      :     1.399348
      py      :     1.801427
      dz2     :     0.004102  d :     0.024188
      dxz     :     0.004701
      dyz     :     0.005748
      dx2y2   :     0.002361
      dxy     :     0.007276
      f0      :     0.000088  f :     0.001474
      f+1     :     0.000330
      f-1     :     0.000184
      f+2     :     0.000070
      f-2     :     0.000359
      f+3     :     0.000089
      f-3     :     0.000354
  1 H s       :     0.621848  s :     0.621848
      pz      :     0.017096  p :     0.046117
      px      :     0.013846
      py      :     0.015175
  2 H s       :     0.555585  s :     0.555585
      pz      :     0.011033  p :     0.057030
      px      :     0.031810
      py      :     0.014186
  3 O s       :     3.800964  s :     3.800964
      pz      :     1.526686  p :     4.876007
      px      :     1.792846
      py      :     1.556476
      dz2     :     0.012537  d :     0.026081
      dxz     :     0.002550
      dyz     :     0.001232
      dx2y2   :     0.002514
      dxy     :     0.007248
      f0      :     0.000252  f :     0.001461
      f+1     :     0.000165
      f-1     :     0.000395
      f+2     :     0.000052
      f-2     :     0.000057
      f+3     :     0.000485
      f-3     :     0.000055
  4 H s       :     0.588975  s :     0.588975
      pz      :     0.019438  p :     0.043642
      px      :     0.012547
      py      :     0.011658
  5 H s       :     0.586710  s :     0.586710
      pz      :     0.010210  p :     0.043415
      px      :     0.014731
      py      :     0.018474
  6 O s       :     3.813060  s :     3.813060
      pz      :     1.721697  p :     4.858321
      px      :     1.793074
      py      :     1.343550
      dz2     :     0.004438  d :     0.025612
      dxz     :     0.005998
      dyz     :     0.004860
      dx2y2   :     0.002546
      dxy     :     0.007770
      f0      :     0.000092  f :     0.001555
      f+1     :     0.000194
      f-1     :     0.000346
      f+2     :     0.000070
      f-2     :     0.000361
      f+3     :     0.000393
      f-3     :     0.000098
  7 H s       :     0.607179  s :     0.607179
      pz      :     0.017246  p :     0.045888
      px      :     0.015079
      py      :     0.013563
  8 H s       :     0.606050  s :     0.606050
      pz      :     0.011447  p :     0.042337
      px      :     0.013137
      py      :     0.017753


                     *******************************
                     * LOEWDIN POPULATION ANALYSIS *
                     *******************************

----------------------
LOEWDIN ATOMIC CHARGES
----------------------
   0 O :   -0.371119
   1 H :    0.147362
   2 H :    0.150380
   3 O :   -0.279173
   4 H :    0.175016
   5 H :    0.177534
   6 O :   -0.338003
   7 H :    0.157142
   8 H :    0.180860

-------------------------------
LOEWDIN REDUCED ORBITAL CHARGES
-------------------------------
  0 O s       :     3.468729  s :     3.468729
      pz      :     1.704797  p :     4.870129
      px      :     1.387023
      py      :     1.778308
      dz2     :     0.004386  d :     0.030234
      dxz     :     0.007200
      dyz     :     0.005957
      dx2y2   :     0.003398
      dxy     :     0.009293
      f0      :     0.000074  f :     0.002027
      f+1     :     0.000444
      f-1     :     0.000268
      f+2     :     0.000034
      f-2     :     0.000632
      f+3     :     0.000085
      f-3     :     0.000489
  1 H s       :     0.688363  s :     0.688363
      pz      :     0.065555  p :     0.164274
      px      :     0.045421
      py      :     0.053298
  2 H s       :     0.656740  s :     0.656740
      pz      :     0.033806  p :     0.192880
      px      :     0.111463
      py      :     0.047611
  3 O s       :     3.460384  s :     3.460384
      pz      :     1.518718  p :     4.782777
      px      :     1.731091
      py      :     1.532969
      dz2     :     0.016768  d :     0.033799
      dxz     :     0.002048
      dyz     :     0.001982
      dx2y2   :     0.003706
      dxy     :     0.009296
      f0      :     0.000456  f :     0.002213
      f+1     :     0.000350
      f-1     :     0.000592
      f+2     :     0.000023
      f-2     :     0.000048
      f+3     :     0.000716
      f-3     :     0.000028
  4 H s       :     0.666419  s :     0.666419
      pz      :     0.081364  p :     0.158564
      px      :     0.041672
      py      :     0.035528
  5 H s       :     0.664819  s :     0.664819
      pz      :     0.029701  p :     0.157647
      px      :     0.055084
      py      :     0.072862
  6 O s       :     3.476340  s :     3.476340
      pz      :     1.706571  p :     4.826593
      px      :     1.772038
      py      :     1.347984
      dz2     :     0.005075  d :     0.032921
      dxz     :     0.006051
      dyz     :     0.007278
      dx2y2   :     0.004058
      dxy     :     0.010459
      f0      :     0.000079  f :     0.002150
      f+1     :     0.000279
      f-1     :     0.000469
      f+2     :     0.000036
      f-2     :     0.000625
      f+3     :     0.000568
      f-3     :     0.000095
  7 H s       :     0.680108  s :     0.680108
      pz      :     0.066106  p :     0.162750
      px      :     0.052791
      py      :     0.043853
  8 H s       :     0.671972  s :     0.671972
      pz      :     0.033519  p :     0.147168
      px      :     0.043617
      py      :     0.070032


                      *****************************
                      * MAYER POPULATION ANALYSIS *
                      *****************************

  NA   - Mulliken gross atomic population
  ZA   - Total nuclear charge
  QA   - Mulliken gross atomic charge
  VA   - Mayer's total valence
  BVA  - Mayer's bonded valence
  FA   - Mayer's free valence

  ATOM       NA         ZA         QA         VA         BVA        FA
  0 O      8.7522     8.0000    -0.7522     1.7039     1.7039    -0.0000
  1 H      0.6680     1.0000     0.3320     0.9049     0.9049    -0.0000
  2 H      0.6126     1.0000     0.3874     0.8843     0.8843    -0.0000
  3 O      8.7045     8.0000    -0.7045     1.7774     1.7774     0.0000
  4 H      0.6326     1.0000     0.3674     0.8790     0.8790     0.0000
  5 H      0.6301     1.0000     0.3699     0.8773     0.8773    -0.0000
  6 O      8.6985     8.0000    -0.6985     1.7726     1.7726     0.0000
  7 H      0.6531     1.0000     0.3469     0.8943     0.8943     0.0000
  8 H      0.6484     1.0000     0.3516     0.8889     0.8889     0.0000

  Mayer bond orders larger than 0.100000
B(  0-O ,  1-H ) :   0.8995 B(  0-O ,  2-H ) :   0.8251 B(  3-O ,  4-H ) :   0.8728 
B(  3-O ,  5-H ) :   0.8708 B(  6-O ,  7-H ) :   0.8890 B(  6-O ,  8-H ) :   0.8836 


-------
TIMINGS
-------

Total SCF time: 0 days 0 hours 0 min 2 sec 

Total time                  ....       2.099 sec
Sum of individual times     ....       1.929 sec  ( 91.9%)

Fock matrix formation       ....       1.778 sec  ( 84.7%)
Diagonalization             ....       0.016 sec  (  0.8%)
Density matrix formation    ....       0.003 sec  (  0.1%)
Population analysis         ....       0.002 sec  (  0.1%)
Initial guess               ....       0.096 sec  (  4.6%)
Orbital Transformation      ....       0.000 sec  (  0.0%)
Orbital Orthonormalization  ....       0.000 sec  (  0.0%)
DIIS solution               ....       0.005 sec  (  0.2%)
SOSCF solution              ....       0.007 sec  (  0.3%)


           ************************************************************
           *        Program running with 6 parallel MPI-processes     *
           *              working on a common directory               *
           ************************************************************

------------------------------------------------------------------------------
                                ORCA  MP2 
------------------------------------------------------------------------------

Freezing NCore=6 chemical core electrons
MP2 will be done in the AO integral direct mode
The Q1-step will be done using symmetric double matrices
Dimension of the basis                    ...  129
Memory devoted for MP2                    ... 8000 MB   
Memory needed for all in one shot         ...   18 MB
Number of MOs that can be treated together...  968      
MP2 density construction                  ... relaxed
The MP2 gradient is requested => amplitudes will be stored on disk
Total number of MOs              ...   12
Number of MOs treated per batch  ...    2 
Number of batches necessary      ...    1 
OPERATORS   0/  0 PASS   0
-----------------------------------------------
 MP2 CORRELATION ENERGY   :     -0.770145247 Eh
-----------------------------------------------


---------------------
MP2 DENSITY FORMATION
---------------------

Completing the external part of the density      ... done
Storing the unrelaxed density                    ... done

Calculating G(D)                                 ... done
Completing the Lagrangian                        ... done
Solving the Z-vector equations                   ... 

------------------------------------------------------------------------------
                           ORCA CP-SCF CALCULATION
------------------------------------------------------------------------------

Input orbitals are from        ... 12h2o.su.etal.mol1,9,10-orca.engrad-mp2.def2tzvp.frozencore.gbw
Input Perturbation             ... 12h2o.su.etal.mol1,9,10-orca.engrad-mp2.def2tzvp.frozencore.pin.tmp
Wavefunction output            ... 12h2o.su.etal.mol1,9,10-orca.engrad-mp2.def2tzvp.frozencore.pout.tmp
Perturbation mode              ... Real perturbation (singlet)
Solver                         ... POPLE
Max. number of iterations      ... 128
Convergence tolerance          ... 1.000e-08
Integral handling              ... Direct
Number of perturbations        ... 1
Number of operators            ... 1
Orbital ranges used for CP-SCF:
 Operator 0:  Orbitals   0... 14  to  15...128
Variables per vector in CP-SCF ... 1710
Number of vectors sought       ... 1
     CP-SCF ITERATION   0: 
     CP-SCF ITERATION   1:      0.000327515837
     CP-SCF ITERATION   2:      0.000006941289
     CP-SCF ITERATION   3:      0.000000318094
     CP-SCF ITERATION   4:      0.000000024100
     CP-SCF ITERATION   5:      0.000000001420
                                                 ... done
Finalizing the relaxed density                   ... done
Transforming P to the AO basis                   ... done
Storing the relaxed density                      ... done

------------------------------------
ENERGY WEIGHTED DENSITY FINALIZATION
------------------------------------

Gathering the parts of the W-matrix              ...                                                      done
Forming the Z-density                            ... done
Transforming Z to the AO basis                   ... done
Calculating G(Z)                                 ... done
Finalizing the W-matrix                          ...                                                      done
Transforming W to the AO basis and storing       ... done

                *********************************************
                * UNRELAXED MP2 DENSITY POPULATION ANALYSIS *
                *********************************************

------------------------------------------------------------------------------
                           ORCA POPULATION ANALYSIS
------------------------------------------------------------------------------
Input electron density              ... 12h2o.su.etal.mol1,9,10-orca.engrad-mp2.def2tzvp.frozencore.pmp2ur
BaseName (.gbw .S,...)              ... 12h2o.su.etal.mol1,9,10-orca.engrad-mp2.def2tzvp.frozencore

                    ********************************
                    * MULLIKEN POPULATION ANALYSIS *
                    ********************************

-----------------------
MULLIKEN ATOMIC CHARGES
-----------------------
   0 O :   -0.746824
   1 H :    0.329791
   2 H :    0.383141
   3 O :   -0.698565
   4 H :    0.364994
   5 H :    0.367465
   6 O :   -0.693840
   7 H :    0.344793
   8 H :    0.349046
Sum of atomic charges:   -0.0000000

--------------------------------
MULLIKEN REDUCED ORBITAL CHARGES
--------------------------------
  0 O s       :     3.803170  s :     3.803170
      pz      :     1.707251  p :     4.888489
      px      :     1.391040
      py      :     1.790198
      dz2     :     0.009555  d :     0.051126
      dxz     :     0.010056
      dyz     :     0.011065
      dx2y2   :     0.007844
      dxy     :     0.012606
      f0      :     0.000456  f :     0.004039
      f+1     :     0.000694
      f-1     :     0.000547
      f+2     :     0.000438
      f-2     :     0.000724
      f+3     :     0.000462
      f-3     :     0.000719
  1 H s       :     0.622355  s :     0.622355
      pz      :     0.017612  p :     0.047853
      px      :     0.014311
      py      :     0.015930
  2 H s       :     0.558127  s :     0.558127
      pz      :     0.011880  p :     0.058732
      px      :     0.031915
      py      :     0.014937
  3 O s       :     3.795817  s :     3.795817
      pz      :     1.517602  p :     4.845676
      px      :     1.780711
      py      :     1.547363
      dz2     :     0.017601  d :     0.053030
      dxz     :     0.008085
      dyz     :     0.006594
      dx2y2   :     0.008124
      dxy     :     0.012626
      f0      :     0.000631  f :     0.004043
      f+1     :     0.000541
      f-1     :     0.000760
      f+2     :     0.000414
      f-2     :     0.000423
      f+3     :     0.000845
      f-3     :     0.000430
  4 H s       :     0.589810  s :     0.589810
      pz      :     0.019514  p :     0.045196
      px      :     0.013364
      py      :     0.012318
  5 H s       :     0.587582  s :     0.587582
      pz      :     0.010964  p :     0.044953
      px      :     0.015353
      py      :     0.018636
  6 O s       :     3.808247  s :     3.808247
      pz      :     1.711286  p :     4.829588
      px      :     1.781999
      py      :     1.336304
      dz2     :     0.009771  d :     0.051913
      dxz     :     0.011261
      dyz     :     0.010091
      dx2y2   :     0.007846
      dxy     :     0.012944
      f0      :     0.000459  f :     0.004091
      f+1     :     0.000556
      f-1     :     0.000705
      f+2     :     0.000435
      f-2     :     0.000723
      f+3     :     0.000749
      f-3     :     0.000465
  7 H s       :     0.607682  s :     0.607682
      pz      :     0.017749  p :     0.047526
      px      :     0.015814
      py      :     0.013963
  8 H s       :     0.607005  s :     0.607005
      pz      :     0.012307  p :     0.043949
      px      :     0.013924
      py      :     0.017718


                     *******************************
                     * LOEWDIN POPULATION ANALYSIS *
                     *******************************

----------------------
LOEWDIN ATOMIC CHARGES
----------------------
   0 O :   -0.368774
   1 H :    0.146088
   2 H :    0.147957
   3 O :   -0.275153
   4 H :    0.173691
   5 H :    0.176192
   6 O :   -0.335302
   7 H :    0.156041
   8 H :    0.179260

-------------------------------
LOEWDIN REDUCED ORBITAL CHARGES
-------------------------------
  0 O s       :     3.465071  s :     3.465071
      pz      :     1.694451  p :     4.840676
      px      :     1.378791
      py      :     1.767434
      dz2     :     0.009918  d :     0.058239
      dxz     :     0.012774
      dyz     :     0.011593
      dx2y2   :     0.008982
      dxy     :     0.014972
      f0      :     0.000452  f :     0.004788
      f+1     :     0.000856
      f-1     :     0.000650
      f+2     :     0.000410
      f-2     :     0.001041
      f+3     :     0.000472
      f-3     :     0.000907
  1 H s       :     0.686308  s :     0.686308
      pz      :     0.066872  p :     0.167604
      px      :     0.046393
      py      :     0.054339
  2 H s       :     0.656620  s :     0.656620
      pz      :     0.034651  p :     0.195423
      px      :     0.112260
      py      :     0.048511
  3 O s       :     3.456511  s :     3.456511
      pz      :     1.509388  p :     4.751902
      px      :     1.718865
      py      :     1.523649
      dz2     :     0.022521  d :     0.061749
      dxz     :     0.007510
      dyz     :     0.007285
      dx2y2   :     0.009285
      dxy     :     0.015149
      f0      :     0.000876  f :     0.004990
      f+1     :     0.000749
      f-1     :     0.001011
      f+2     :     0.000389
      f-2     :     0.000421
      f+3     :     0.001136
      f-3     :     0.000408
  4 H s       :     0.664735  s :     0.664735
      pz      :     0.082839  p :     0.161574
      px      :     0.042480
      py      :     0.036255
  5 H s       :     0.663172  s :     0.663172
      pz      :     0.030421  p :     0.160636
      px      :     0.056092
      py      :     0.074123
  6 O s       :     3.472578  s :     3.472578
      pz      :     1.696220  p :     4.797588
      px      :     1.761199
      py      :     1.340170
      dz2     :     0.010490  d :     0.060258
      dxz     :     0.011597
      dyz     :     0.012722
      dx2y2   :     0.009471
      dxy     :     0.015978
      f0      :     0.000455  f :     0.004878
      f+1     :     0.000660
      f-1     :     0.000874
      f+2     :     0.000408
      f-2     :     0.001030
      f+3     :     0.000976
      f-3     :     0.000475
  7 H s       :     0.678099  s :     0.678099
      pz      :     0.067361  p :     0.165861
      px      :     0.053800
      py      :     0.044700
  8 H s       :     0.670377  s :     0.670377
      pz      :     0.034358  p :     0.150363
      px      :     0.044626
      py      :     0.071379


                      *****************************
                      * MAYER POPULATION ANALYSIS *
                      *****************************

  NA   - Mulliken gross atomic population
  ZA   - Total nuclear charge
  QA   - Mulliken gross atomic charge
  VA   - Mayer's total valence
  BVA  - Mayer's bonded valence
  FA   - Mayer's free valence

  ATOM       NA         ZA         QA         VA         BVA        FA
  0 O      8.7468     8.0000    -0.7468     2.0153     1.6249     0.3904
  1 H      0.6702     1.0000     0.3298     0.9110     0.8631     0.0479
  2 H      0.6169     1.0000     0.3831     0.8916     0.8456     0.0460
  3 O      8.6986     8.0000    -0.6986     2.0822     1.6972     0.3850
  4 H      0.6350     1.0000     0.3650     0.8847     0.8390     0.0457
  5 H      0.6325     1.0000     0.3675     0.8830     0.8374     0.0456
  6 O      8.6938     8.0000    -0.6938     2.0764     1.6904     0.3860
  7 H      0.6552     1.0000     0.3448     0.9001     0.8539     0.0462
  8 H      0.6510     1.0000     0.3490     0.8948     0.8463     0.0485

  Mayer bond orders larger than 0.100000
B(  0-O ,  1-H ) :   0.8582 B(  0-O ,  2-H ) :   0.7878 B(  3-O ,  4-H ) :   0.8333 
B(  3-O ,  5-H ) :   0.8314 B(  6-O ,  7-H ) :   0.8490 B(  6-O ,  8-H ) :   0.8414 



                *******************************************
                * RELAXED MP2 DENSITY POPULATION ANALYSIS *
                *******************************************

------------------------------------------------------------------------------
                           ORCA POPULATION ANALYSIS
------------------------------------------------------------------------------
Input electron density              ... 12h2o.su.etal.mol1,9,10-orca.engrad-mp2.def2tzvp.frozencore.pmp2re
BaseName (.gbw .S,...)              ... 12h2o.su.etal.mol1,9,10-orca.engrad-mp2.def2tzvp.frozencore

                    ********************************
                    * MULLIKEN POPULATION ANALYSIS *
                    ********************************

-----------------------
MULLIKEN ATOMIC CHARGES
-----------------------
   0 O :   -0.729041
   1 H :    0.323918
   2 H :    0.362550
   3 O :   -0.677395
   4 H :    0.358839
   5 H :    0.361130
   6 O :   -0.681439
   7 H :    0.338422
   8 H :    0.343016
Sum of atomic charges:    0.0000000

--------------------------------
MULLIKEN REDUCED ORBITAL CHARGES
--------------------------------
  0 O s       :     3.803905  s :     3.803905
      pz      :     1.702377  p :     4.871946
      px      :     1.384737
      py      :     1.784832
      dz2     :     0.009350  d :     0.049216
      dxz     :     0.009493
      dyz     :     0.010764
      dx2y2   :     0.007722
      dxy     :     0.011887
      f0      :     0.000454  f :     0.003974
      f+1     :     0.000677
      f-1     :     0.000539
      f+2     :     0.000438
      f-2     :     0.000705
      f+3     :     0.000460
      f-3     :     0.000702
  1 H s       :     0.627424  s :     0.627424
      pz      :     0.017765  p :     0.048658
      px      :     0.014294
      py      :     0.016599
  2 H s       :     0.578397  s :     0.578397
      pz      :     0.012668  p :     0.059053
      px      :     0.030882
      py      :     0.015503
  3 O s       :     3.798906  s :     3.798906
      pz      :     1.512837  p :     4.823584
      px      :     1.766681
      py      :     1.544066
      dz2     :     0.016276  d :     0.050938
      dxz     :     0.008067
      dyz     :     0.006536
      dx2y2   :     0.008103
      dxy     :     0.011956
      f0      :     0.000612  f :     0.003967
      f+1     :     0.000531
      f-1     :     0.000738
      f+2     :     0.000414
      f-2     :     0.000421
      f+3     :     0.000820
      f-3     :     0.000430
  4 H s       :     0.595368  s :     0.595368
      pz      :     0.018759  p :     0.045793
      px      :     0.014218
      py      :     0.012816
  5 H s       :     0.593332  s :     0.593332
      pz      :     0.011606  p :     0.045538
      px      :     0.015831
      py      :     0.018101
  6 O s       :     3.812916  s :     3.812916
      pz      :     1.705759  p :     4.814889
      px      :     1.776200
      py      :     1.332931
      dz2     :     0.009479  d :     0.049615
      dxz     :     0.010982
      dyz     :     0.009506
      dx2y2   :     0.007583
      dxy     :     0.012065
      f0      :     0.000457  f :     0.004019
      f+1     :     0.000548
      f-1     :     0.000686
      f+2     :     0.000436
      f-2     :     0.000702
      f+3     :     0.000728
      f-3     :     0.000463
  7 H s       :     0.613327  s :     0.613327
      pz      :     0.017901  p :     0.048252
      px      :     0.016470
      py      :     0.013880
  8 H s       :     0.612391  s :     0.612391
      pz      :     0.013200  p :     0.044593
      px      :     0.014670
      py      :     0.016723


                     *******************************
                     * LOEWDIN POPULATION ANALYSIS *
                     *******************************

----------------------
LOEWDIN ATOMIC CHARGES
----------------------
   0 O :   -0.371189
   1 H :    0.147916
   2 H :    0.141187
   3 O :   -0.270867
   4 H :    0.175251
   5 H :    0.177703
   6 O :   -0.338705
   7 H :    0.157641
   8 H :    0.181063

-------------------------------
LOEWDIN REDUCED ORBITAL CHARGES
-------------------------------
  0 O s       :     3.466722  s :     3.466722
      pz      :     1.694096  p :     4.842247
      px      :     1.382329
      py      :     1.765821
      dz2     :     0.009858  d :     0.057396
      dxz     :     0.012402
      dyz     :     0.011501
      dx2y2   :     0.008954
      dxy     :     0.014680
      f0      :     0.000454  f :     0.004825
      f+1     :     0.000868
      f-1     :     0.000650
      f+2     :     0.000411
      f-2     :     0.001042
      f+3     :     0.000476
      f-3     :     0.000923
  1 H s       :     0.684149  s :     0.684149
      pz      :     0.066990  p :     0.167935
      px      :     0.045971
      py      :     0.054974
  2 H s       :     0.663109  s :     0.663109
      pz      :     0.035395  p :     0.195704
      px      :     0.111171
      py      :     0.049138
  3 O s       :     3.458079  s :     3.458079
      pz      :     1.511531  p :     4.747035
      px      :     1.709761
      py      :     1.525744
      dz2     :     0.021832  d :     0.060745
      dxz     :     0.007547
      dyz     :     0.007147
      dx2y2   :     0.009353
      dxy     :     0.014865
      f0      :     0.000875  f :     0.005009
      f+1     :     0.000749
      f-1     :     0.001018
      f+2     :     0.000391
      f-2     :     0.000421
      f+3     :     0.001144
      f-3     :     0.000409
  4 H s       :     0.663242  s :     0.663242
      pz      :     0.081898  p :     0.161507
      px      :     0.043203
      py      :     0.036406
  5 H s       :     0.661754  s :     0.661754
      pz      :     0.030715  p :     0.160543
      px      :     0.056547
      py      :     0.073281
  6 O s       :     3.474751  s :     3.474751
      pz      :     1.695421  p :     4.800180
      px      :     1.759470
      py      :     1.345289
      dz2     :     0.010302  d :     0.058877
      dxz     :     0.011542
      dyz     :     0.012325
      dx2y2   :     0.009228
      dxy     :     0.015480
      f0      :     0.000457  f :     0.004898
      f+1     :     0.000660
      f-1     :     0.000882
      f+2     :     0.000409
      f-2     :     0.001029
      f+3     :     0.000983
      f-3     :     0.000478
  7 H s       :     0.676458  s :     0.676458
      pz      :     0.067513  p :     0.165902
      px      :     0.054464
      py      :     0.043924
  8 H s       :     0.668393  s :     0.668393
      pz      :     0.035151  p :     0.150544
      px      :     0.045428
      py      :     0.069965


                      *****************************
                      * MAYER POPULATION ANALYSIS *
                      *****************************

  NA   - Mulliken gross atomic population
  ZA   - Total nuclear charge
  QA   - Mulliken gross atomic charge
  VA   - Mayer's total valence
  BVA  - Mayer's bonded valence
  FA   - Mayer's free valence

  ATOM       NA         ZA         QA         VA         BVA        FA
  0 O      8.7290     8.0000    -0.7290     2.0217     1.6359     0.3858
  1 H      0.6761     1.0000     0.3239     0.9144     0.8664     0.0480
  2 H      0.6374     1.0000     0.3626     0.9170     0.8716     0.0454
  3 O      8.6774     8.0000    -0.6774     2.1100     1.7306     0.3793
  4 H      0.6412     1.0000     0.3588     0.8894     0.8437     0.0457
  5 H      0.6389     1.0000     0.3611     0.8880     0.8424     0.0456
  6 O      8.6814     8.0000    -0.6814     2.0805     1.6992     0.3813
  7 H      0.6616     1.0000     0.3384     0.9047     0.8584     0.0463
  8 H      0.6570     1.0000     0.3430     0.8993     0.8507     0.0486

  Mayer bond orders larger than 0.100000
B(  0-O ,  1-H ) :   0.8614 B(  0-O ,  2-H ) :   0.7911 B(  3-O ,  4-H ) :   0.8369 
B(  3-O ,  5-H ) :   0.8351 B(  6-O ,  7-H ) :   0.8535 B(  6-O ,  8-H ) :   0.8457 



----------------------------------
MP2 DERIVATIVE INTEGRAL GENERATION
----------------------------------


Input Wavefunction Amplitudes       ... 12h2o.su.etal.mol1,9,10-orca.engrad-mp2.def2tzvp.frozencore.mp2tsaa.tmp
Input Correlated Electron Density   ... 12h2o.su.etal.mol1,9,10-orca.engrad-mp2.def2tzvp.frozencore.pmp2re
Input Energy Weighted Density       ... 12h2o.su.etal.mol1,9,10-orca.engrad-mp2.def2tzvp.frozencore.wmp2.tmp
Input SCF Electron Density          ... 12h2o.su.etal.mol1,9,10-orca.engrad-mp2.def2tzvp.frozencore.scfp

One-Electron Terms    ...
                        ... One-Electron Terms done
Prescreening matrices              ... done

Batch handling in the gradient evaluation:
Memory available                      ... 8000.0 MB
Memory per occupied orbital in Q2     ...    1.5 MB
Memory per occupied orbital in Q3     ...    0.0 MB
Total memory requirement per |i>      ...    1.6 MB
Max. Number of orbitals possible      ...   5089
Number of orbitals treated per batch  ...     12
Number of batches to be done          ...      1
Batch   0: i=    3 ...    14

---------------------------------------
MP2 TOTAL ENERGY:     -228.944544729 Eh
---------------------------------------

The final MP2 gradient
  0:  -0.01113413   0.00461295   0.00004500
  1:  -0.00196994   0.00018231   0.00039224
  2:   0.02195731  -0.00690709  -0.00150115
  3:  -0.01364013  -0.00466783   0.00837424
  4:   0.00061213  -0.00070540  -0.00676463
  5:   0.00426858   0.00750168  -0.00050162
  6:   0.00750964   0.02723729  -0.00007453
  7:   0.00200866   0.00264324   0.00098510
  8:  -0.00961211  -0.02989715  -0.00095464

-----------------------------------
NORM OF THE MP2 GRADIENT:  0.053648
-----------------------------------

-------------------------   --------------------
FINAL SINGLE POINT ENERGY      -228.944544729001
-------------------------   --------------------


                            ***************************************
                            *     ORCA property calculations      *
                            ***************************************

                                    ---------------------
                                    Active property flags
                                    ---------------------
   (+) Dipole Moment


------------------------------------------------------------------------------
                       ORCA ELECTRIC PROPERTIES CALCULATION
------------------------------------------------------------------------------

Dipole Moment Calculation                       ... on
Quadrupole Moment Calculation                   ... off
Polarizability Calculation                      ... off
GBWName                                         ... 12h2o.su.etal.mol1,9,10-orca.engrad-mp2.def2tzvp.frozencore.gbw
Electron density file                           ... 12h2o.su.etal.mol1,9,10-orca.engrad-mp2.def2tzvp.frozencore.scfp
The origin for moment calculation is the CENTER OF MASS  = (-1.236642, -0.577570  1.795339)

-------------
DIPOLE MOMENT
-------------
                                X             Y             Z
Electronic contribution:      0.26427       0.00928       0.08876
Nuclear contribution   :      0.19549      -0.53316      -0.68611
                        -----------------------------------------
Total Dipole Moment    :      0.45976      -0.52388      -0.59734
                        -----------------------------------------
Magnitude (a.u.)       :      0.91796
Magnitude (Debye)      :      2.33327



--------------------
Rotational spectrum 
--------------------
 
Rotational constants in cm-1:     0.263556     0.033110     0.029622 
Rotational constants in MHz :  7901.206734   992.603902   888.037236 

 Dipole components along the rotational axes: 
x,y,z [a.u.] :    -0.214798    -0.652034     0.609398 
x,y,z [Debye]:    -0.545974    -1.657338     1.548968 

 

                         *** MP2 UNRELAXED DENSITY ***

------------------------------------------------------------------------------
                       ORCA ELECTRIC PROPERTIES CALCULATION
------------------------------------------------------------------------------

Dipole Moment Calculation                       ... on
Quadrupole Moment Calculation                   ... off
Polarizability Calculation                      ... off
GBWName                                         ... 12h2o.su.etal.mol1,9,10-orca.engrad-mp2.def2tzvp.frozencore.gbw
Electron density file                           ... 12h2o.su.etal.mol1,9,10-orca.engrad-mp2.def2tzvp.frozencore.pmp2ur
The origin for moment calculation is the CENTER OF MASS  = (-1.236642, -0.577570  1.795339)

-------------
DIPOLE MOMENT
-------------
                                X             Y             Z
Electronic contribution:      0.26476       0.01419       0.09579
Nuclear contribution   :      0.19549      -0.53316      -0.68611
                        -----------------------------------------
Total Dipole Moment    :      0.46025      -0.51897      -0.59031
                        -----------------------------------------
Magnitude (a.u.)       :      0.91084
Magnitude (Debye)      :      2.31518



--------------------
Rotational spectrum 
--------------------
 
Rotational constants in cm-1:     0.263556     0.033110     0.029622 
Rotational constants in MHz :  7901.206734   992.603902   888.037236 

 Dipole components along the rotational axes: 
x,y,z [a.u.] :    -0.211056    -0.650256     0.601876 
x,y,z [Debye]:    -0.536461    -1.652820     1.529847 

 

                           *** MP2 RELAXED DENSITY ***

------------------------------------------------------------------------------
                       ORCA ELECTRIC PROPERTIES CALCULATION
------------------------------------------------------------------------------

Dipole Moment Calculation                       ... on
Quadrupole Moment Calculation                   ... off
Polarizability Calculation                      ... off
GBWName                                         ... 12h2o.su.etal.mol1,9,10-orca.engrad-mp2.def2tzvp.frozencore.gbw
Electron density file                           ... 12h2o.su.etal.mol1,9,10-orca.engrad-mp2.def2tzvp.frozencore.pmp2re
The origin for moment calculation is the CENTER OF MASS  = (-1.236642, -0.577570  1.795339)

-------------
DIPOLE MOMENT
-------------
                                X             Y             Z
Electronic contribution:      0.27156       0.01559       0.10565
Nuclear contribution   :      0.19549      -0.53316      -0.68611
                        -----------------------------------------
Total Dipole Moment    :      0.46705      -0.51757      -0.58045
                        -----------------------------------------
Magnitude (a.u.)       :      0.90716
Magnitude (Debye)      :      2.30583



--------------------
Rotational spectrum 
--------------------
 
Rotational constants in cm-1:     0.263556     0.033110     0.029622 
Rotational constants in MHz :  7901.206734   992.603902   888.037236 

 Dipole components along the rotational axes: 
x,y,z [a.u.] :    -0.202501    -0.654562     0.594547 
x,y,z [Debye]:    -0.514717    -1.663765     1.511220 

 

Timings for individual modules:

Sum of individual times         ...        8.641 sec (=   0.144 min)
GTO integral calculation        ...        1.520 sec (=   0.025 min)  17.6 %
SCF iterations                  ...        3.153 sec (=   0.053 min)  36.5 %
MP2 module                      ...        3.969 sec (=   0.066 min)  45.9 %
                             ****ORCA TERMINATED NORMALLY****
TOTAL RUN TIME: 0 days 0 hours 0 minutes 9 seconds 661 msec
