37
Energy:   -677.02844278
O    1.25464568   1.44562441  -3.27033493
H    1.56288351   1.91324084  -4.04657985
H    0.53633139   0.89902946  -3.58891050
O    1.07906863  -1.75947416   2.73457713
H    1.58221510  -2.47090494   3.13073585
H    0.83324625  -1.20012689   3.47141758
O   -0.82549882   1.19467982   2.20580660
H   -0.94731244   2.10492615   1.93590861
H   -1.53734769   0.71984805   1.77681033
O   -2.61932593  -0.28053950   0.71486422
H   -3.51494704  -0.56948209   0.88981237
H   -2.66243757   0.12330748  -0.15190037
O    2.56605603   1.33338712   3.09907849
H    3.26367802   1.79452511   3.56481141
H    1.96194676   1.05427013   3.78710287
O    2.29892256  -0.46547790  -1.55172529
H    1.80171340  -1.21940995  -1.86890248
H    2.16229601   0.20914885  -2.21688977
O    0.40423267   0.26347445   4.48507672
H   -0.18155213   0.66480846   3.84318964
H   -0.04229974   0.38048494   5.32361664
O    0.04703007   1.88872487  -0.81179254
H   -0.84977648   1.67465257  -1.06897519
H    0.52555279   1.95033629  -1.63850402
O   -2.38882016   0.94095388  -1.73590526
H   -3.01526597   1.51687579  -2.17421047
H   -1.95169132   0.47507561  -2.44872197
O   -0.86615065  -0.30900025  -3.67584750
H   -0.47525484  -1.06414884  -3.23632171
H   -1.18075756  -0.65400536  -4.51144658
O   -0.32105282  -1.74543525   0.34728446
H   -0.01649489  -2.02192795   1.21159234
H   -1.18814095  -1.37248903   0.50634782
O    0.33935451  -2.31668194  -2.24215673
H    0.46032000  -3.25613977  -2.38006317
H    0.04886081  -2.24301319  -1.33308128
K    1.49679671   0.33502235   0.85842275
