37
Energy:   -677.25979382
O    2.40912941   1.54872337  -1.86177846
H    3.05397754   2.12671577  -2.26961117
H    2.13277499   0.96254310  -2.56623057
O   -0.33177152  -2.21436137   3.03456115
H   -1.17810809  -2.38873112   2.62280702
H   -0.21140693  -2.93671802   3.65095800
O   -1.44549176   3.08141067   1.34392430
H   -0.96513023   2.75794856   0.58178460
H   -1.85073419   3.89526529   1.04450641
O   -0.57733577  -1.67422826  -0.33439648
H   -1.34977361  -1.96492591   0.15044010
H   -0.92867244  -1.14640747  -1.05147362
O    0.65148191   2.25097121   2.96928400
H   -0.03975960   2.76178386   2.54799139
H    1.08632560   2.87181181   3.55383491
O    2.65369687  -0.46467368   0.02787316
H    2.54757843  -1.22809245  -0.53972045
H    2.78301460   0.26695773  -0.57563680
O   -2.10277288   0.56432177   2.29705791
H   -2.07719933   1.45568047   1.94912471
H   -2.25121962   0.67733433   3.23589953
O    0.00251265   1.65627872  -0.48571603
H    0.85092089   1.81566706  -0.89927457
H   -0.50726922   1.19696342  -1.15308680
O   -1.13364254   0.04612851  -2.41535870
H   -1.83482761   0.15585226  -3.05764527
H   -0.34522992  -0.08800181  -2.94133060
O    1.35651676  -0.41242213  -3.52040880
H    1.55081606  -1.18534921  -2.99025470
H    1.62029418  -0.65728070  -4.40736855
O   -2.63592141  -2.02366709   1.47710435
H   -2.66937130  -1.10071150   1.72863156
H   -3.54878574  -2.31094978   1.49657816
O    1.69514256  -2.43430681  -1.68806412
H    1.89632316  -3.37012364  -1.69031514
H    0.87640931  -2.36602755  -1.19689649
K    0.58858811  -0.09472401   1.65962761
