37
Energy:   -681.53630001
O    2.20264701   1.16573029  -2.03835999
H    2.90017575   1.53104663  -2.58262966
H    1.67928538   0.63781031  -2.64137323
O    0.27456188  -2.51230567   2.55389331
H   -0.10243050  -2.97424951   1.80508326
H    0.51612541  -3.20636124   3.16721686
O   -0.76560082   3.57796608   1.70843624
H   -0.41055262   3.19788220   0.90487612
H   -0.98225166   4.47984689   1.47199334
O   -1.74488308  -0.74401420   0.38660405
H   -2.14403359  -0.13803921   1.01086764
H   -1.80916946  -0.29635783  -0.45702079
O    1.17815126   2.28029455   3.20346861
H    0.57611129   2.93074244   2.84194782
H    1.70176677   2.76599151   3.84077317
O    2.10917380  -0.80613635  -0.11271684
H    1.85164241  -1.56770346  -0.63225987
H    2.33806879  -0.13984290  -0.76070756
O   -1.99857793   1.18533887   2.36800655
H   -1.74832601   2.09344485   2.19786148
H   -2.60732576   1.23818122   3.10480070
O    0.18523403   1.93546083  -0.27271496
H    0.97859520   1.88366421  -0.80575061
H   -0.51018656   1.61190236  -0.84536841
O   -1.58027313   0.65451496  -1.96744063
H   -2.25867273   0.96007453  -2.56963594
H   -0.93829577   0.22056136  -2.52938475
O    0.47047054  -0.59521718  -3.32743855
H    0.63026729  -1.39914486  -2.83307316
H    0.47056718  -0.87278358  -4.24351100
O   -0.92603133  -3.33194124   0.19080913
H   -1.65030413  -3.95672868   0.15473412
H   -1.35028130  -2.47542343   0.24200540
O    0.98695840  -2.77558493  -1.70855635
H    1.47257467  -3.57524556  -1.91092129
H    0.30826776  -3.05586517  -1.09450924
K    0.54436505   0.06076257   1.85295815
